/*--------------------------------*- C++ -*----------------------------------*\
| =========                 |                                                 |
| \\      /  F ield         | foam-extend: Open Source CFD                    |
|  \\    /   O peration     | Version:     4.0                                |
|   \\  /    A nd           | Web:         http://www.foam-extend.org         |
|    \\/     M anipulation  |                                                 |
\*---------------------------------------------------------------------------*/
FoamFile
{
    version     2.0;
    format      ascii;
    class       volScalarField;
    location    "2.4";
    object      p;
}
// * * * * * * * * * * * * * * * * * * * * * * * * * * * * * * * * * * * * * //

dimensions      [0 2 -2 0 0 0 0];

internalField   nonuniform List<scalar> 
918
(
0.0130753
1.03948
0.662494
0.0185862
0.688284
0.999965
0.235419
0.210638
0.00418707
0.444621
0.497369
0.139571
0.840935
0.567748
0.481728
0.567715
0.241906
0.379884
0.00476658
0.568805
-0.00591831
0.0175121
0.0141153
0.00846514
0.211582
0.396104
0.693643
0.614256
0.614491
0.625186
0.621081
0.650238
0.623651
0.901994
0.938733
0.936315
0.0567458
0.491534
0.222626
0.197252
0.256075
0.268391
0.216238
0.221647
0.0717252
0.202349
0.187837
0.0333979
0.00941126
0.00446648
0.0145397
0.0113659
0.00690315
0.482292
0.438903
0.429428
0.450898
0.457546
0.502861
0.492776
0.486555
0.500748
0.505647
0.065085
0.130335
0.118583
0.149216
0.161518
0.964228
0.911769
0.939647
0.874716
0.900906
0.804318
0.773696
0.593633
0.619328
0.544074
0.514381
0.482337
0.48845
0.472611
0.476175
0.593488
0.557952
0.548015
0.239988
0.2386
0.241824
0.237653
0.485901
0.362852
0.339555
0.0114318
0.0152838
0.00509018
0.0150455
0.0236547
0.0329309
0.55734
0.545009
0.610659
0.5791
0.58985
0.0686036
0.114043
0.0127983
0.0186764
0.174664
0.198973
0.185884
0.0237156
0.217683
0.219025
0.504602
0.494179
0.434044
0.4641
0.664802
0.637321
0.7257
0.758461
0.60402
0.599953
0.578246
0.609078
0.592653
0.0612016
0.0640737
0.0598059
0.0546635
0.05133
0.492964
0.493306
0.489518
0.489876
0.182899
0.156483
0.324924
0.289198
0.302917
0.488124
0.230236
0.23344
0.138663
0.0956664
0.11202
0.0586057
0.0351758
0.0462767
0.0394023
0.0437014
0.0228998
0.0317657
0.027758
0.0173103
0.00916144
0.00536624
0.481114
0.479477
0.481279
0.483716
0.396771
0.422474
0.41177
0.463483
0.469435
0.498773
0.494434
0.504005
0.505987
0.474598
0.483608
0.479127
0.51043
0.516679
0.0598471
0.0554779
0.0668234
0.0664878
0.0879198
0.0949407
0.111456
0.102805
0.710209
0.734251
0.747993
0.72076
0.488647
0.49241
0.469346
0.473398
0.593668
0.591048
0.5931
0.602266
0.594547
0.600425
0.524158
0.528493
0.541042
0.534529
0.23765
0.235454
0.486348
0.488455
0.484481
0.484742
0.0397082
0.0330122
0.0233888
0.0288556
0.522505
0.536983
0.528939
0.174975
0.140117
0.157271
0.0126371
0.0068096
0.0303229
0.0326059
0.234468
0.226203
0.230611
0.518075
0.532209
0.76243
0.778977
0.791777
0.821567
0.880694
0.86363
0.823156
0.068241
0.064991
0.068082
0.0445093
0.0554609
0.0499274
0.0798505
0.0681099
0.0749895
0.493052
0.493808
0.489309
0.489352
0.489126
0.489897
0.487455
0.48857
0.236551
0.235324
0.236149
0.0267155
0.0138424
0.48436
0.485981
0.0389715
0.053226
0.0483183
0.684751
0.644976
0.695422
0.669769
0.63668
0.657238
0.49343
0.492254
0.493786
0.487315
0.470967
0.482364
0.511969
0.519002
0.516493
0.489172
0.489523
0.48019
0.482125
0.481347
0.545332
0.566006
0.611115
0.553936
0.582606
0.612466
0.594676
0.487887
0.488637
0.488568
0.488577
0.488648
0.0107662
0.0110984
0.00924811
0.492914
0.488422
0.491544
0.489516
0.48821
0.489617
0.0122925
0.0100789
0.599649
0.59615
0.0232936
0.0372461
0.595638
0.590827
0.474574
0.500467
0.0790039
0.0291026
0.0397575
0.0134427
0.441877
0.484149
0.493257
0.500782
0.511645
0.12491
0.0752282
0.0658764
0.589239
0.553082
0.547407
0.375235
0.0196049
0.023222
0.0181544
0.0139172
0.0130621
0.586457
0.591221
0.591288
0.557159
0.579829
0.565773
0.0620819
0.0672961
0.251506
0.0171831
0.0207215
0.0138443
0.0224299
0.0313088
0.0232844
0.563398
0.581437
0.568595
0.029731
0.0478527
0.383683
0.295432
0.433332
0.468624
0.483038
0.48481
0.41957
0.468838
0.452726
0.232703
0.207838
0.1192
0.110277
0.0876977
0.0472309
0.0333251
0.0308757
0.0417225
0.0422909
0.0252813
0.0342687
0.0184346
0.0224867
0.0223482
0.0169289
0.449289
0.448646
0.432601
0.426554
0.48118
0.485203
0.484243
0.478652
0.49119
0.497641
0.496979
0.486797
0.487404
0.492695
0.506228
0.504663
0.50442
0.516426
0.514142
0.495959
0.502508
0.500197
0.107708
0.1119
0.131952
0.13849
0.0711854
0.074666
0.0683564
0.078782
0.065711
0.064086
0.0708378
0.048795
0.593566
0.586235
0.59289
0.549616
0.541523
0.571936
0.579308
0.564676
0.574002
0.580191
0.543986
0.536242
0.372614
0.340598
0.491176
0.487018
0.463333
0.0312007
0.0324995
0.0370025
0.0236829
0.0213478
0.0179368
0.0229795
0.0300095
0.057644
0.0593417
0.0728297
0.0743682
0.285859
0.274378
0.264437
0.211505
0.497075
0.231565
0.062063
0.0564977
0.0217049
0.163569
0.438043
0.400978
0.18433
0.0614909
0.492537
0.482795
0.484615
0.46515
0.485778
0.520027
0.537475
0.505819
0.47539
0.500745
0.496999
0.354503
0.15835
0.216499
0.240621
0.158079
0.121702
0.227195
0.233282
0.201011
0.181582
0.226988
0.212234
0.218958
0.203736
0.214401
0.211881
0.0548794
0.0658245
0.0215657
0.240393
0.212708
0.21829
0.19609
0.0544705
0.0412774
0.0465074
0.0518794
0.0538204
0.0572548
0.0644035
0.0530285
0.036998
0.0416366
0.0428614
0.0396075
0.45684
0.463109
0.437993
0.392861
0.415923
0.399195
0.432616
0.459852
0.461692
0.462976
0.474006
0.450371
0.422925
0.434134
0.430553
0.455711
0.454764
0.483261
0.487404
0.482537
0.483438
0.484914
0.485767
0.495388
0.490567
0.482024
0.485046
0.496615
0.495366
0.496212
0.512741
0.510849
0.508132
0.510065
0.484529
0.482138
0.486264
0.479139
0.554009
0.547611
0.541473
0.518609
0.528792
0.525101
0.0860296
0.102694
0.0942056
0.143957
0.148976
0.168231
0.153114
0.0651318
0.0711521
0.0629207
0.072987
0.0784319
0.0878175
0.0892292
0.106269
0.0999731
0.0684202
0.0802804
0.0915575
0.0877296
0.0787075
0.0878204
0.0869009
0.0730033
0.0697879
0.561902
0.578691
0.57179
0.569344
0.583141
0.577907
0.523644
0.536603
0.529976
0.537629
0.526825
0.561933
0.562744
0.396103
0.424609
0.310415
0.340704
0.305705
0.486609
0.491127
0.483803
0.482071
0.485683
0.491466
0.486873
0.48419
0.487348
0.485463
0.48877
0.488982
0.026964
0.0294469
0.0302281
0.0403746
0.0330337
0.346555
0.373676
0.302993
0.362957
0.495564
0.48789
0.467293
0.468483
0.478479
0.484802
0.231299
0.233752
0.215816
0.220282
0.224324
0.135041
0.181236
0.190323
0.182274
0.192859
0.220862
0.217586
0.222735
0.167439
0.16145
0.161063
0.0856685
0.128888
0.102786
0.0763271
0.134237
0.102367
0.110839
0.117451
0.131014
0.184831
0.17393
0.178689
0.193049
0.138637
0.102298
0.128508
0.14022
0.0963976
0.106791
0.115307
0.44353
0.453873
0.488225
0.489768
0.491992
0.498374
0.49609
0.495577
0.491408
0.493939
0.494635
0.496677
0.37726
0.352279
0.205686
0.200493
0.177143
0.182078
0.178814
0.156945
0.161061
0.238782
0.231077
0.232272
0.221627
0.215177
0.192801
0.205823
0.316511
0.264276
0.312689
0.240727
0.189822
0.225812
0.205192
0.217316
0.185562
0.163413
0.167331
0.111525
0.13514
0.167338
0.132687
0.10504
0.208058
0.235297
0.218619
0.203646
0.192306
0.201621
0.199068
0.21286
0.216282
0.210947
0.0532191
0.0524015
0.0462496
0.0480179
0.0524797
0.0471099
0.0504164
0.0511219
0.0440811
0.0430754
0.0450074
0.483607
0.479438
0.471933
0.477359
0.463877
0.462534
0.459988
0.453954
0.477965
0.475532
0.464419
0.463548
0.471915
0.474965
0.478832
0.483078
0.473538
0.469624
0.467846
0.471726
0.472246
0.471003
0.465139
0.468287
0.471368
0.488762
0.492436
0.49507
0.488135
0.484483
0.505849
0.51233
0.512127
0.509602
0.499359
0.515439
0.53263
0.529057
0.517609
0.518377
0.523511
0.0727128
0.0706922
0.074275
0.0753706
0.0700859
0.0717701
0.0710708
0.0808151
0.0811092
0.0851658
0.0857275
0.0925754
0.0942868
0.540483
0.553845
0.551877
0.535819
0.545533
0.551884
0.54465
0.45168
0.434332
0.445323
0.422086
0.369347
0.392794
0.489437
0.485848
0.489886
0.483727
0.480661
0.480798
0.489652
0.487098
0.466072
0.47633
0.468243
0.488381
0.490257
0.487792
0.486886
0.396544
0.431381
0.397975
0.427433
0.440465
0.317576
0.294379
0.268835
0.376034
0.377374
0.488836
0.484481
0.468402
0.469568
0.491788
0.479808
0.489559
0.488886
0.450564
0.443018
0.41529
0.225694
0.235796
0.235468
0.224071
0.229257
0.199837
0.20113
0.210396
0.215342
0.212386
0.501466
0.493698
0.499051
0.499466
0.487931
0.429078
0.449783
0.329036
0.334546
0.24539
0.214401
0.201515
0.22224
0.258622
0.225801
0.169396
0.189216
0.18742
0.175788
0.143826
0.137141
0.217012
0.214041
0.223622
0.228919
0.224649
0.22328
0.052913
0.0598821
0.0482305
0.0482159
0.0688529
0.0686628
0.477754
0.477031
0.471255
0.467794
0.464204
0.467422
0.523768
0.52502
0.533195
0.53676
0.533696
0.528885
0.432345
0.442525
0.426692
0.443263
0.363009
0.372192
0.351232
0.404376
0.408466
0.395352
0.471483
0.481284
0.481197
0.482934
0.474464
0.479211
0.489447
0.489037
0.49005
0.484435
0.490835
0.483909
0.492199
0.495008
0.425396
0.415568
0.447059
0.469738
0.483085
0.471707
0.273053
0.259322
0.235206
0.262447
0.242771
0.490193
0.487102
0.485727
0.470454
0.466627
0.480905
0.478547
0.472791
0.458583
)
;

boundaryField
{
    wall1
    {
        type            zeroGradient;
    }
    outlet
    {
        type            fixedValue;
        value           uniform 0;
    }
    smallInlet
    {
        type            zeroGradient;
    }
    largeInlet
    {
        type            zeroGradient;
    }
    wall2
    {
        type            zeroGradient;
    }
    frontAndBackPlanes
    {
        type            empty;
    }
}


// ************************************************************************* //
