/*--------------------------------*- C++ -*----------------------------------*\
| =========                 |                                                 |
| \\      /  F ield         | foam-extend: Open Source CFD                    |
|  \\    /   O peration     | Version:     4.0                                |
|   \\  /    A nd           | Web:         http://www.foam-extend.org         |
|    \\/     M anipulation  |                                                 |
\*---------------------------------------------------------------------------*/
FoamFile
{
    version     2.0;
    format      ascii;
    class       surfaceScalarField;
    location    "2.4";
    object      phi;
}
// * * * * * * * * * * * * * * * * * * * * * * * * * * * * * * * * * * * * * //

dimensions      [0 3 -1 0 0 0 0];

internalField   nonuniform List<scalar> 
1300
(
-1.06825e-06
9.37738e-07
1.87548e-06
-1.3962e-06
1.87548e-06
9.37738e-07
1.08474e-06
-1.08474e-06
1.05877e-07
-1.05877e-07
-1.54835e-06
-1.4463e-06
7.40692e-07
-7.40692e-07
6.56695e-07
-6.56695e-07
9.23741e-07
-9.23741e-07
-6.3048e-07
6.3048e-07
-5.39211e-07
5.39211e-07
7.0482e-08
-7.0482e-08
8.93352e-07
-8.93352e-07
3.6589e-07
-3.6589e-07
9.65808e-07
-9.65808e-07
-9.49093e-07
9.49093e-07
1.0093e-06
-1.0093e-06
-3.55328e-08
3.55328e-08
2.87722e-07
-2.67909e-06
-7.80532e-07
-7.80532e-07
8.2109e-07
-8.2109e-07
-7.64178e-07
7.64178e-07
7.64176e-07
-7.64176e-07
-2.73499e-06
2.73499e-06
8.59513e-07
1.01596e-06
-6.77154e-07
2.55263e-06
1.19832e-06
1.19832e-06
-1.38146e-06
1.38146e-06
-4.43726e-07
4.94012e-07
-7.01874e-07
7.01874e-07
8.60551e-08
-8.60551e-08
1.156e-06
-7.12596e-08
1.156e-06
-1.06065e-06
-2.40881e-08
-1.06065e-06
1.52809e-07
-4.69319e-08
1.52809e-07
-1.23824e-06
1.23824e-06
-3.64224e-08
-6.94546e-08
-3.64222e-08
-7.27663e-07
7.27663e-07
1.49146e-06
-3.03981e-06
-1.5491e-06
1.29004e-06
-3.96914e-06
1.42941e-06
-2.87571e-06
4.54129e-07
-4.54129e-07
8.09871e-07
-6.91788e-08
8.09871e-07
-7.17142e-07
-2.35506e-08
-7.17142e-07
5.90492e-07
-5.90492e-07
6.57363e-07
-6.67851e-10
6.57363e-07
-6.89123e-07
3.24272e-08
-6.89123e-07
-5.7741e-07
5.7741e-07
9.24856e-07
-1.11435e-09
9.24856e-07
-9.36342e-07
1.26002e-08
-9.36342e-07
2.39535e-07
6.98204e-07
-1.17727e-06
1.67129e-06
-6.98204e-07
6.7724e-08
5.71797e-07
5.86828e-08
5.71797e-07
-5.32937e-07
-6.27359e-09
-5.32937e-07
5.73033e-07
-3.38224e-08
5.73033e-07
1.27737e-08
5.77083e-08
1.27737e-08
-1.68677e-07
9.81955e-08
-1.68677e-07
9.51876e-07
9.236e-07
7.97048e-07
9.63044e-08
7.97048e-07
3.93234e-07
-2.7344e-08
3.93234e-07
-3.07332e-07
-5.85581e-08
-3.07332e-07
2.91597e-07
-2.91597e-07
1.02613e-06
-6.03223e-08
1.02613e-06
-8.74448e-07
-7.46461e-08
-8.74448e-07
-1.03975e-06
-1.23173e-06
-2.43596e-06
2.43596e-06
-1.48686e-06
8.81417e-07
1.27884e-07
8.81417e-07
1.20302e-06
1.53197e-06
-1.20302e-06
1.93714e-07
-5.8268e-08
2.27351e-08
-5.82681e-08
-7.69676e-07
-1.08555e-08
-7.69677e-07
-8.97085e-07
-3.92565e-08
8.97086e-07
-7.59954e-08
-6.35494e-07
6.35494e-07
-5.12051e-07
-3.09039e-07
-5.12051e-07
-5.50032e-07
5.50032e-07
6.44071e-07
-7.10377e-08
-6.44071e-07
-1.20107e-07
7.26098e-07
3.80781e-08
7.26098e-07
-7.94938e-07
3.07623e-08
-7.94938e-07
-8.95485e-07
1.91145e-06
9.79992e-07
-1.0389e-06
1.45545e-07
1.0389e-06
1.59425e-07
-6.7866e-07
-2.32141e-08
-6.7866e-07
8.68243e-07
-8.68243e-07
7.21069e-07
-1.91947e-08
7.21069e-07
7.79705e-08
8.08456e-09
7.79704e-08
-1.01805e-07
1.57495e-08
-1.01805e-07
1.24142e-06
-8.54245e-08
1.24142e-06
1.05108e-06
-2.49456e-08
-1.05108e-06
-9.57439e-09
-1.69948e-07
1.69948e-07
2.27285e-07
-7.44758e-08
2.27285e-07
1.2645e-06
-2.3077e-08
-1.2645e-06
2.62572e-08
1.19154e-06
4.66991e-08
1.19154e-06
7.13728e-07
7.34029e-09
-7.13729e-07
-1.39336e-08
-7.5661e-07
-1.3067e-08
7.56609e-07
-2.89466e-08
1.4516e-06
-2.68333e-06
1.42119e-06
-2.97029e-06
4.1962e-07
3.45085e-08
4.1962e-07
-5.0645e-07
5.2322e-08
-5.0645e-07
-9.09388e-07
-5.64206e-08
9.09387e-07
-9.95161e-08
-6.97785e-07
-1.93567e-08
-6.97785e-07
5.76804e-07
1.36874e-08
5.76804e-07
-6.09636e-07
1.91444e-08
-6.09636e-07
-6.76281e-07
-2.15042e-08
6.76281e-07
-1.89177e-08
-7.36252e-07
4.71295e-08
-7.36252e-07
-5.5442e-07
-2.29902e-08
-5.5442e-07
6.23116e-07
-4.57057e-08
6.23116e-07
-9.16485e-07
9.16485e-07
-9.28521e-07
1.20358e-08
9.28521e-07
-3.66525e-09
-2.41127e-06
2.44203e-06
-2.70472e-08
-2.38422e-06
5.4475e-07
5.4475e-07
-3.71249e-08
4.98986e-08
-3.71248e-08
-2.93145e-07
1.24467e-07
-2.93145e-07
-9.26283e-07
1.90627e-06
-9.49194e-07
1.90107e-06
-8.91442e-07
3.44407e-06
-9.84035e-07
1.90764e-06
-6.77742e-07
6.77742e-07
-7.31581e-07
5.38395e-08
7.31581e-07
6.54662e-08
4.25224e-07
-3.19895e-08
4.25224e-07
2.61145e-07
3.04521e-08
2.61145e-07
-3.33406e-07
4.1809e-08
-3.33406e-07
8.63271e-07
-8.63271e-07
8.4898e-07
1.42914e-08
-8.4898e-07
-2.54676e-08
-7.95558e-07
5.93054e-08
7.95558e-07
8.58595e-08
2.026e-08
-5.66822e-08
-2.02602e-08
-3.80079e-08
-7.93153e-07
1.57659e-07
-7.93153e-07
5.69688e-07
6.58052e-08
5.69688e-07
4.68289e-07
-4.30648e-08
-4.68289e-07
-4.37623e-08
-6.21424e-07
7.13928e-08
-6.21425e-07
-2.35764e-06
-2.65833e-08
-2.29895e-06
-8.21521e-07
-8.21521e-07
5.59943e-07
2.23123e-06
6.67487e-07
-4.43712e-08
-6.67487e-07
-1.11729e-08
-8.67651e-07
4.37978e-09
8.67651e-07
5.9192e-10
8.81979e-07
3.45066e-08
-8.81979e-07
1.37359e-08
6.55564e-08
1.2414e-08
6.55564e-08
1.32298e-07
-1.32298e-07
1.18121e-07
1.41778e-08
-1.18121e-07
1.6316e-08
-1.94012e-07
2.40647e-08
-1.94012e-07
-2.75806e-07
-3.15261e-08
2.75806e-07
-4.85216e-08
1.09182e-06
9.9727e-08
1.09182e-06
-5.38222e-07
3.17713e-08
-5.38222e-07
5.30544e-07
3.91441e-08
-5.30544e-07
-2.38756e-08
-1.13091e-08
2.45334e-06
-5.33441e-07
5.03465e-10
5.33441e-07
-2.49142e-06
2.49192e-06
5.31146e-08
1.24419e-08
-5.31147e-08
1.59899e-08
4.32898e-07
1.17133e-07
-4.32898e-07
1.39754e-07
-6.27273e-07
1.76363e-08
6.27273e-07
5.04693e-08
2.47268e-07
1.38764e-08
2.47268e-07
3.80259e-07
3.93608e-08
-3.80259e-07
4.68538e-08
-2.48638e-06
-7.01167e-08
2.5565e-06
-2.5202e-06
6.91541e-07
3.45563e-08
-6.91541e-07
2.52648e-06
1.48984e-07
2.09635e-08
-1.48984e-07
1.66856e-08
-2.10452e-07
1.64399e-08
-2.10452e-07
-9.34204e-07
1.41051e-07
9.34205e-07
1.57612e-07
5.61577e-07
1.52273e-08
-5.61577e-07
2.3355e-08
2.32769e-07
1.44988e-08
-2.32769e-07
2.23171e-08
2.61282e-06
-2.62367e-06
-1.35632e-06
7.90526e-07
1.12092e-06
2.3225e-06
-1.34005e-06
-1.34328e-06
-2.82691e-06
1.98298e-06
1.46109e-06
2.1424e-06
1.24308e-06
-1.10333e-06
-2.82041e-07
3.39749e-07
-5.02428e-06
5.07098e-06
3.98865e-06
-4.01412e-06
-4.02455e-06
4.01061e-06
-1.46005e-06
-1.57977e-06
-3.31523e-06
3.24605e-06
2.8266e-06
-2.79209e-06
-3.07853e-06
3.07786e-06
-3.16126e-06
3.17494e-06
3.75184e-06
-3.7342e-06
4.03717e-06
-4.03829e-06
3.94745e-06
-3.99315e-06
4.10084e-06
-4.12471e-06
9.58682e-07
9.42388e-07
-2.63905e-06
2.73535e-06
-3.50461e-06
3.63249e-06
3.70322e-06
-3.76355e-06
-2.01454e-06
-6.09138e-07
-2.0276e-06
1.50941e-06
-2.96946e-06
1.3663e-06
-2.72262e-06
-1.01003e-06
1.96871e-06
-8.96242e-07
2.01716e-06
-1.85751e-06
-1.6471e-06
1.66379e-06
6.5871e-07
3.53417e-06
-3.55738e-06
4.10626e-06
-4.09252e-06
-4.39564e-06
4.32438e-06
1.46272e-06
-3.04249e-06
1.50756e-06
-2.85084e-06
2.26819e-06
1.72047e-06
-2.19354e-06
-6.33375e-07
-1.71354e-06
-9.25509e-07
1.56799e-06
5.74411e-07
5.0712e-06
-4.93014e-06
5.03139e-06
-4.96559e-06
3.44831e-07
1.10572e-06
-1.45055e-06
1.10901e-06
-6.32348e-07
1.73807e-06
6.10731e-07
7.35199e-07
1.15879e-06
-1.04166e-06
-5.54652e-08
-1.39509e-06
-1.51519e-06
9.63934e-07
-1.03841e-06
-9.24772e-07
8.55318e-07
-3.58927e-06
-1.435e-06
-3.56302e-06
3.56002e-06
1.51096e-06
3.65974e-06
-2.56377e-06
-1.45034e-06
-2.54948e-06
-2.41333e-06
-1.61122e-06
-2.40599e-06
-2.48632e-06
2.42651e-06
5.9809e-08
2.37973e-06
-4.86605e-06
-6.15982e-07
4.1002e-06
3.46683e-06
-1.99934e-06
-1.31589e-06
-2.02289e-06
2.21825e-06
1.02779e-06
2.11874e-06
1.57373e-06
1.25287e-06
1.61309e-06
-1.74013e-06
-1.05196e-06
-1.68781e-06
2.19677e-06
-2.17342e-06
-1.94935e-06
-1.12918e-06
-1.91692e-06
1.97226e-06
1.1056e-06
1.95334e-06
-3.68487e-06
9.98741e-07
2.68613e-06
1.99701e-06
1.75483e-06
-2.01616e-06
-1.1451e-06
-2.19284e-06
-1.54136e-06
-2.14237e-06
-1.23733e-06
-2.44753e-06
2.38244e-06
-6.27608e-07
2.61113e-06
1.42605e-06
2.60746e-06
-2.47362e-06
-1.56467e-06
-2.46102e-06
2.41115e-06
1.5363e-06
2.36678e-06
2.46415e-06
1.63669e-06
-2.44116e-06
-1.552e-06
2.59261e-06
2.43878e-06
-2.63176e-06
-1.49295e-06
-7.77348e-07
2.23844e-06
-1.13029e-06
2.07268e-06
1.7713e-06
9.6405e-07
1.83677e-06
-1.26639e-06
-8.79319e-07
2.1457e-06
7.02329e-07
-3.3782e-06
1.7311e-06
-2.71949e-06
2.11602e-06
1.51647e-06
2.20188e-06
2.86831e-06
8.34912e-07
2.84337e-06
1.09428e-06
-1.0804e-06
1.24271e-06
-1.20091e-06
-3.56506e-06
2.10718e-06
1.45788e-06
2.38158e-06
1.62903e-06
-2.35264e-06
3.25034e-07
2.97728e-06
-2.91748e-06
7.82619e-09
-2.71479e-06
-3.32393e-06
-2.9989e-06
2.61393e-06
1.49233e-06
2.61452e-06
-2.61936e-06
-1.47316e-06
-2.58485e-06
-3.0473e-06
-1.34834e-06
-3.07139e-06
3.3202e-06
1.00418e-06
3.23478e-06
-5.83249e-07
5.91334e-07
-1.5115e-06
1.46844e-06
-3.24312e-06
-1.72246e-06
3.08546e-06
1.98573e-06
-4.72423e-06
2.45945e-06
2.26479e-06
-1.9109e-06
2.43563e-07
1.66733e-06
-1.72829e-07
9.3618e-07
9.71713e-07
-4.1718e-07
1.3514e-07
3.18985e-07
4.16214e-07
6.59777e-07
7.94916e-07
-1.13144e-06
1.20283e-06
1.42505e-06
1.35402e-06
-1.61176e-07
-2.25118e-07
2.3756e-07
-3.03994e-06
2.84094e-06
1.99e-07
-2.96543e-06
2.94236e-06
2.69341e-07
3.57835e-06
-3.30901e-06
-6.20659e-07
-8.3323e-07
8.55965e-07
7.68098e-07
1.95835e-07
7.19577e-07
-5.05304e-07
-4.19468e-07
-5.61986e-07
-4.73444e-07
-5.64966e-07
1.63892e-06
-2.4342e-07
-1.3955e-06
1.16547e-06
6.11898e-07
2.62298e-06
1.48537e-06
-4.10835e-06
-3.61096e-06
-1.31919e-06
3.45335e-06
2.06396e-07
-1.22742e-06
1.16886e-06
1.50431e-07
2.47255e-06
-1.99356e-06
2.14399e-06
2.92717e-06
1.60103e-06
-4.5282e-06
2.20899e-06
4.05531e-07
-2.21337e-06
-3.36113e-07
2.20806e-06
1.32611e-06
-2.18887e-06
-2.17122e-07
2.39643e-06
-4.90221e-06
2.50578e-06
3.88876e-06
-2.04358e-06
-2.82247e-06
-3.49393e-06
3.85583e-06
-1.93817e-06
-1.91765e-06
1.03336e-06
-1.67534e-06
-3.47549e-07
-1.6947e-06
3.18835e-06
-2.16055e-06
-2.41784e-06
-1.34571e-06
2.47426e-06
-3.55519e-07
2.83283e-06
-3.49511e-06
3.09914e-06
3.95965e-07
-1.78511e-06
-1.71e-06
-1.73132e-06
-1.83374e-06
1.06422e-06
-2.79554e-06
4.93604e-07
2.60554e-06
-3.32643e-06
1.98072e-06
-2.13015e-06
4.11087e-06
3.96389e-06
-1.35835e-06
2.25092e-06
-2.88723e-06
6.36305e-07
7.62304e-07
1.43447e-06
-3.01323e-06
2.2157e-07
2.79166e-06
-1.46624e-06
1.92145e-06
1.91053e-06
-3.83197e-06
2.92019e-06
-3.01613e-06
8.88404e-07
2.12772e-06
1.88027e-06
1.29467e-06
-1.8955e-06
-2.77915e-07
3.5844e-06
-4.21201e-06
1.13686e-06
-1.6649e-06
-2.52028e-07
-1.61777e-06
-1.3851e-06
2.20076e-06
-8.15652e-07
-1.53508e-06
2.42349e-06
-8.60526e-07
3.06128e-06
1.47533e-06
-3.0807e-06
1.60536e-06
2.43938e-06
2.07838e-06
3.61006e-07
-7.62739e-07
-3.44927e-06
2.3041e-06
-1.82662e-06
-4.77483e-07
-2.23721e-06
-3.47641e-07
2.22518e-06
3.82287e-07
-2.15926e-07
-3.47685e-06
3.69278e-06
-2.67694e-06
-2.7162e-06
-2.50234e-06
-9.74513e-07
-2.17966e-06
-1.37773e-06
2.19083e-06
1.75946e-07
2.7328e-06
-1.09611e-06
1.1808e-06
2.74961e-06
-3.84573e-06
3.10249e-06
-3.52881e-07
2.09264e-06
2.84623e-06
-4.93887e-06
3.51869e-06
-2.47431e-06
-2.42789e-06
-3.94748e-06
3.8987e-06
-1.05247e-06
1.96635e-06
1.93235e-06
-2.05003e-06
3.23083e-06
-1.39812e-06
-2.44761e-06
-2.89107e-06
-4.52293e-07
-1.46916e-06
-1.61154e-06
2.34847e-06
-2.75799e-07
-2.53705e-06
1.96264e-06
-4.49463e-07
-1.69291e-06
2.27608e-06
-1.97699e-07
1.63907e-06
-3.2874e-07
2.05984e-06
1.81696e-06
-2.35863e-06
3.19354e-06
1.75224e-06
-2.65525e-06
-4.16133e-07
2.66483e-06
1.78539e-07
6.99949e-07
3.94332e-07
7.14448e-07
4.60606e-07
7.82109e-07
1.52482e-06
2.67844e-07
1.25698e-06
-8.12561e-07
9.83455e-07
6.29636e-07
-1.03031e-06
-1.70597e-07
7.05565e-07
-6.84601e-07
7.89104e-07
-7.72664e-07
-4.98523e-08
-2.86762e-06
-3.04875e-06
-1.41972e-06
1.83427e-06
-3.25398e-06
2.28876e-06
-3.6371e-06
4.57323e-06
-2.28447e-06
-2.81103e-06
3.81521e-06
1.7622e-06
-3.48724e-07
-2.34526e-07
-3.32974e-07
-1.80866e-06
1.75858e-06
5.00781e-08
1.76769e-06
-2.36303e-06
5.95346e-07
2.62026e-06
-8.5257e-07
8.11599e-07
-1.24449e-06
-2.67014e-07
-1.27648e-06
-3.07838e-07
-1.71945e-06
2.02729e-06
1.1606e-06
1.11684e-06
2.01331e-06
2.7422e-06
-4.75551e-06
-7.59942e-07
2.76406e-06
-2.00412e-06
2.61206e-06
-3.372e-06
2.38224e-07
2.52584e-06
-3.67235e-06
1.9529e-06
-3.93936e-06
2.85029e-06
-1.08908e-06
-2.77134e-06
-4.53915e-06
1.76781e-06
-3.16239e-06
1.43993e-06
-1.56554e-06
3.33335e-06
1.17666e-06
2.36073e-06
-3.9254e-06
2.57815e-06
-2.93103e-06
2.3262e-07
-3.16365e-06
3.04527e-06
-5.85823e-07
5.42932e-07
-2.17327e-06
-2.24926e-06
-3.38673e-06
2.41222e-06
-2.2114e-06
3.65133e-06
1.12195e-06
3.19904e-06
7.51429e-07
-4.43096e-07
1.96857e-06
-1.52548e-06
-1.66013e-06
1.21704e-06
2.53055e-07
-1.09529e-06
8.42236e-07
-6.31685e-07
1.53515e-07
4.7817e-07
1.99718e-07
3.91616e-07
-2.12131e-07
-1.29865e-08
-6.44672e-07
-1.14531e-07
2.68046e-07
1.23028e-07
1.39018e-07
-1.24342e-06
-1.79653e-06
9.88413e-07
6.78922e-07
-1.96013e-06
1.1269e-06
-1.28752e-07
-4.33235e-07
-1.11922e-06
9.90471e-07
-3.84723e-07
-7.345e-07
4.71242e-07
-7.77358e-07
-4.50061e-07
8.08884e-07
-8.9307e-08
6.45679e-07
-2.63924e-06
-7.49819e-07
1.16929e-06
-1.78817e-07
1.43176e-07
2.69777e-06
-3.79311e-06
2.51095e-06
1.28216e-06
-3.64993e-06
-3.50753e-07
2.86171e-06
-3.2276e-06
2.60694e-06
-1.44059e-06
2.92596e-06
1.42111e-06
4.02806e-06
2.59305e-06
1.93926e-06
-3.94338e-06
2.81624e-06
-4.13543e-06
-1.01621e-06
3.92903e-06
-4.94524e-06
2.80644e-06
-1.20541e-06
1.7896e-06
-2.23966e-06
5.65566e-07
1.22404e-06
-2.30546e-06
-2.22275e-06
2.33453e-06
1.38016e-07
2.90752e-08
-1.78119e-06
1.81026e-06
3.62802e-07
1.52828e-06
3.13879e-06
-3.35591e-06
1.72641e-06
-3.66459e-06
-1.52757e-06
1.45341e-06
-5.11799e-06
-1.47287e-06
2.92628e-06
2.41589e-06
2.82142e-06
1.00862e-06
-2.48531e-06
2.89615e-07
1.66373e-06
2.41734e-06
-1.64222e-06
-5.2474e-08
3.20307e-06
-3.58028e-06
3.77202e-07
1.88719e-06
2.73366e-07
-2.05847e-06
2.65252e-06
-2.29035e-07
1.792e-06
-1.78828e-06
-2.13583e-06
-2.1883e-06
2.71162e-06
8.00335e-08
1.65966e-06
-3.86348e-07
2.04601e-06
-2.09635e-06
9.21446e-07
-2.2798e-06
2.04469e-06
-1.41505e-06
1.87409e-06
-1.88383e-06
1.62181e-07
-1.99233e-06
1.17667e-06
-6.93801e-07
1.98847e-06
1.71056e-06
-2.38671e-06
1.25753e-06
-2.63874e-06
1.43758e-06
-4.07632e-06
2.57444e-06
-2.34775e-06
-1.72856e-06
5.33866e-07
1.66802e-06
2.2382e-06
-1.70433e-06
-1.09556e-07
-1.72732e-06
-3.29916e-06
1.92143e-06
-3.12321e-06
-1.64392e-06
3.61027e-06
1.58691e-06
5.14848e-06
-1.53821e-06
2.72058e-06
1.45204e-06
-2.99025e-06
-2.49543e-06
-2.84307e-06
-1.0579e-06
2.46079e-06
-2.21254e-06
2.57355e-06
6.07178e-07
1.20979e-06
-2.19916e-06
4.94823e-07
-1.37715e-06
2.58694e-06
6.82687e-07
-1.71631e-06
1.37477e-08
1.70256e-06
-3.90871e-07
2.14311e-06
-8.01223e-07
2.94434e-06
-2.39232e-06
2.57086e-06
-2.7668e-07
1.08828e-06
4.28885e-07
4.45571e-07
2.9431e-07
4.94794e-07
1.01831e-06
-7.24002e-07
1.65743e-07
-5.18859e-07
1.70312e-06
-1.68937e-06
6.59918e-07
-1.38392e-06
5.79851e-07
1.34597e-07
-6.02168e-07
-1.70496e-07
-1.55442e-06
-7.53964e-07
2.51616e-06
1.87099e-06
-2.0714e-06
2.00411e-07
6.27574e-07
1.21461e-06
-8.56791e-07
-1.11859e-06
-2.53135e-06
4.4276e-06
-6.12389e-07
1.90377e-06
5.96781e-07
-8.31307e-07
-4.9851e-07
-2.15864e-06
-4.00063e-07
-8.58089e-07
2.67819e-08
-1.25815e-06
-3.06192e-07
-2.89876e-07
1.63414e-06
-1.58406e-06
1.08664e-07
-2.17581e-06
4.88049e-07
-1.57713e-06
-7.88427e-07
-8.15771e-07
-3.5309e-07
-1.49146e-06
-7.57802e-07
-2.07728e-06
-4.99937e-08
1.06684e-06
3.0164e-09
1.36002e-07
2.71062e-07
1.859e-07
5.2565e-07
-6.44868e-08
5.90137e-07
-1.29619e-06
-5.00341e-07
-1.09578e-06
1.79404e-06
5.61042e-07
-2.35509e-06
1.99304e-06
1.68794e-06
9.53438e-07
1.49377e-06
-1.67259e-06
-1.14547e-06
7.19149e-07
1.27389e-06
-4.68072e-07
3.06113e-06
-2.45789e-06
2.59591e-06
3.73157e-07
-4.57209e-06
1.98397e-06
-1.73707e-07
7.78564e-07
1.35457e-06
1.55041e-06
-1.4611e-06
-4.95154e-06
-1.66448e-07
-2.44577e-06
-3.52236e-06
-2.19625e-06
-2.74817e-07
-1.52808e-06
2.16438e-06
1.53321e-06
2.24441e-06
1.48065e-07
-1.91041e-06
-7.06759e-07
-2.74251e-06
-2.43532e-06
-1.9405e-06
6.46443e-07
3.21999e-06
-2.81929e-06
1.23522e-06
-2.22394e-06
5.2138e-07
2.42296e-06
-2.28934e-06
-1.34776e-06
2.70547e-06
-1.34618e-07
2.28834e-06
3.52357e-06
7.76786e-08
-1.76705e-06
1.47674e-06
-1.34214e-06
-9.47809e-07
-3.09169e-07
3.25726e-07
1.19844e-07
-3.39904e-07
5.00278e-08
-1.20812e-06
-2.43544e-07
7.91453e-07
-5.47909e-07
3.0803e-07
-3.69679e-08
1.85073e-06
-1.17181e-06
-5.04353e-07
-1.00469e-06
-2.13242e-07
3.76895e-07
2.02969e-06
6.68074e-07
3.31185e-06
-7.965e-07
1.94197e-06
-5.87992e-07
5.51024e-07
-1.09822e-07
3.11483e-09
-1.09266e-06
-9.38449e-09
1.22642e-06
-8.32851e-07
7.23029e-07
-3.69632e-07
)
;

boundaryField
{
    wall1
    {
        type            calculated;
        value           uniform 0;
    }
    outlet
    {
        type            calculated;
        value           nonuniform List<scalar> 8(1.06825e-06 1.3962e-06 2.99465e-06 2.39137e-06 3.04056e-06 2.71946e-06 2.27149e-06 2.87278e-06);
    }
    smallInlet
    {
        type            calculated;
        value           nonuniform List<scalar> 4(-9.37738e-07 -9.37738e-07 -9.37738e-07 -9.37738e-07);
    }
    largeInlet
    {
        type            calculated;
        value           nonuniform List<scalar> 8(-1.87548e-06 -1.87548e-06 -1.87548e-06 -1.87548e-06 -1.87548e-06 -1.87548e-06 -1.87548e-06 -1.87548e-06);
    }
    wall2
    {
        type            calculated;
        value           uniform 0;
    }
    frontAndBackPlanes
    {
        type            empty;
    }
}


// ************************************************************************* //
