/*--------------------------------*- C++ -*----------------------------------*\
| =========                 |                                                 |
| \\      /  F ield         | foam-extend: Open Source CFD                    |
|  \\    /   O peration     | Version:     4.0                                |
|   \\  /    A nd           | Web:         http://www.foam-extend.org         |
|    \\/     M anipulation  |                                                 |
\*---------------------------------------------------------------------------*/
FoamFile
{
    version     2.0;
    format      ascii;
    class       volVectorField;
    location    "2.4";
    object      U;
}
// * * * * * * * * * * * * * * * * * * * * * * * * * * * * * * * * * * * * * //

dimensions      [0 1 -1 0 0 0 0];

internalField   nonuniform List<vector> 
918
(
(-0.265381 -0.00529063 1.55817e-19)
(0.0175916 0.426511 8.56234e-19)
(0.0129509 -0.433616 -3.06673e-19)
(-0.352756 0.0163894 3.91765e-20)
(-0.00865656 -0.457392 4.21116e-19)
(-0.0185507 0.397949 2.57865e-19)
(-0.162187 -0.268454 -2.31782e-19)
(-0.012584 -0.0135896 1.18989e-20)
(-0.799414 0.00915797 0)
(-0.00421196 -0.190389 -3.82604e-20)
(0.00272403 -0.167522 1.8741e-20)
(-0.244944 0.00406294 -7.98149e-20)
(0.0167306 0.306044 1.27163e-18)
(-0.0045641 0.253827 -3.5416e-19)
(-0.00934632 0.0336291 1.5177e-19)
(-0.0193836 -0.254012 -4.34558e-19)
(-0.0868649 -0.0253107 3.01064e-21)
(-0.0240385 -0.269545 0)
(-0.233428 -0.021039 -4.85619e-20)
(0.0224993 -0.276654 -2.9529e-19)
(-0.0446622 0.00268931 4.21855e-19)
(-0.624971 -0.00375633 1.66358e-19)
(-0.327235 0.00791507 6.81523e-20)
(-0.197332 0.00431268 2.81243e-20)
(-0.20877 -0.00870528 9.58406e-20)
(-0.0408322 0.388834 -8.22977e-19)
(-0.00872087 0.314971 1.29134e-19)
(0.0435433 -0.452023 4.60154e-21)
(0.0169593 -0.50193 3.46766e-20)
(0.0480635 -0.509308 -6.21377e-19)
(-0.0423636 -0.509738 -1.17469e-19)
(-0.0546662 -0.494204 1.15384e-18)
(-0.0303615 -0.37206 -1.63906e-19)
(-0.0505083 0.43378 6.89279e-19)
(-0.0548719 0.514958 2.0487e-19)
(-0.0102407 0.509358 -2.03826e-20)
(-0.176134 0.00162619 -1.81252e-20)
(-0.0185179 -0.0280869 0)
(-0.243241 -0.326185 2.19346e-19)
(-0.207189 -0.259958 2.00164e-19)
(-0.18812 -0.344031 -2.62167e-19)
(-0.123791 -0.281338 -1.05869e-20)
(-0.0615136 -0.0378314 3.3012e-19)
(-0.0260343 -0.0186075 3.53689e-20)
(-0.305371 -0.195613 1.34919e-19)
(-0.0382564 -0.0395693 -1.60652e-19)
(0.0102452 -0.00376793 3.7488e-19)
(-0.183929 0.0014122 -7.18829e-20)
(-0.813363 0.00980612 -2.81714e-20)
(-0.810791 0.0118351 -7.62592e-21)
(-0.648275 0.00399468 4.56316e-20)
(-0.769634 0.0102672 7.76404e-21)
(-0.72345 0.00659367 2.39213e-20)
(-0.00296086 -0.117724 -3.94973e-21)
(-0.0116503 -0.27613 -1.01412e-19)
(-0.0081947 -0.208723 -2.33216e-20)
(-0.0020075 -0.260668 8.65982e-20)
(-0.00200826 -0.1839 9.35663e-30)
(-0.000610373 -0.149487 7.23889e-21)
(-2.21257e-05 -0.23546 -8.29952e-20)
(-0.00055278 -0.16623 -1.6544e-20)
(0.00697077 -0.241768 6.33229e-20)
(0.00434582 -0.177215 1.51807e-20)
(-0.137185 0.00683947 0)
(-0.323396 0.003642 6.18494e-20)
(-0.243304 0.00221933 2.89699e-20)
(-0.327009 0.00907493 0)
(-0.247951 0.00147947 0)
(0.0697463 0.492438 7.18023e-18)
(0.0277227 0.551039 -3.96903e-19)
(0.0436002 0.518572 -3.12918e-19)
(0.0251744 0.421351 1.12723e-20)
(0.0286233 0.35601 -6.74562e-19)
(0.0257036 0.385401 4.11177e-19)
(0.012998 0.275139 -1.06777e-18)
(-0.00484113 0.350892 8.34102e-19)
(-0.00040471 0.25092 5.93713e-19)
(-0.0118029 0.364109 -8.9528e-20)
(-0.00932908 0.268583 9.71255e-19)
(-0.0154887 0.0382965 -9.89175e-21)
(-0.00706976 0.00638499 1.10078e-19)
(-0.0240311 0.0997725 3.70508e-20)
(-0.0128176 0.0792443 -5.29062e-20)
(-0.00304427 -0.501313 -9.33602e-21)
(-0.0198938 -0.303551 -6.73245e-20)
(-0.0124545 -0.218526 -1.48933e-20)
(-0.15552 -0.0356492 -9.29471e-22)
(-0.0988208 -0.0214823 -7.15995e-21)
(-0.137982 -0.0473185 5.40958e-20)
(-0.0693095 -0.0244794 -2.58587e-20)
(-0.00826104 -0.0759275 3.20512e-20)
(-0.0550504 -0.361715 -4.03256e-19)
(-0.0536772 -0.289846 -3.8682e-21)
(-0.323827 -0.0188661 5.37194e-20)
(-0.225644 -0.00529312 1.52993e-20)
(-0.60892 0.00685295 1.02646e-20)
(-0.445187 0.000316682 -5.46149e-20)
(-0.460671 -0.0215789 -1.32053e-19)
(-0.400826 -0.0111492 5.84677e-20)
(0.0239697 -0.321682 8.55072e-20)
(0.0148903 -0.236987 5.24576e-29)
(0.0465519 -0.468378 -3.55056e-20)
(0.0349647 -0.372181 -2.16035e-21)
(0.0254198 -0.341502 2.97511e-19)
(0.0384408 -0.0266494 0)
(0.050352 0.0279623 3.67341e-19)
(-0.276426 0.000174337 0)
(-0.196998 0.0017218 0)
(-0.323716 8.67845e-05 0)
(-0.305456 -0.00358484 -1.84735e-19)
(-0.235581 -0.00229258 -7.16343e-20)
(-0.158713 -0.0123288 1.23091e-19)
(-0.270062 -0.0190976 4.24151e-20)
(-0.147654 -0.0156881 2.91927e-20)
(-0.00702332 0.237127 -5.38958e-19)
(-0.0258761 0.398899 -8.6151e-19)
(-0.0389927 0.452187 4.32758e-19)
(-0.0207977 0.303275 -1.47671e-18)
(-0.0119388 0.401496 1.27482e-18)
(-0.00654004 0.299139 2.9297e-19)
(-0.0151303 0.417449 -1.17481e-18)
(-0.0118229 0.330995 1.33449e-19)
(0.0240381 -0.50717 3.13977e-20)
(0.00892395 -0.501825 -2.6456e-20)
(-0.0322202 -0.34893 1.53596e-19)
(-0.0367756 -0.404079 2.42723e-19)
(-0.0259027 -0.30467 5.3771e-19)
(-0.250925 0.00382453 0)
(-0.169969 0.00219952 1.00126e-20)
(-0.225689 0.00188712 9.01435e-20)
(-0.259887 0.00402209 1.24215e-20)
(-0.182663 0.00121652 1.04138e-20)
(-0.034975 -0.0552428 3.22391e-21)
(-0.0182091 -0.0268306 1.80729e-21)
(-0.0387859 -0.0586134 -2.28509e-21)
(-0.0206287 -0.0329599 -2.14968e-20)
(-0.30131 -0.3121 6.27699e-19)
(-0.253992 -0.250991 -5.11878e-20)
(-0.0986756 -0.368272 1.30493e-19)
(-0.142505 -0.359897 6.07799e-19)
(-0.0885976 -0.291071 4.62195e-20)
(-0.0212444 -0.0501628 2.02754e-21)
(-0.0822886 -0.0521012 -2.45253e-19)
(-0.0459422 -0.0254523 1.35586e-20)
(-0.344338 -0.291938 -2.26799e-19)
(-0.371993 -0.258487 4.47007e-19)
(-0.287318 -0.229578 -1.74986e-19)
(-0.388594 -0.208918 4.01828e-19)
(-0.311443 -0.154417 -6.23638e-20)
(-0.259878 -0.00330738 7.02484e-20)
(-0.258848 0.00190115 2.60102e-20)
(-0.181718 -5.83783e-05 1.97521e-20)
(-0.275828 0.00266135 0)
(-0.269771 0.00674265 -1.17043e-19)
(-0.192301 0.0030917 7.90455e-20)
(-0.72039 0.0120894 0)
(-0.794599 0.0137745 -1.69557e-22)
(-0.767214 0.0155455 -3.8093e-21)
(-0.00145579 -0.176111 5.65417e-21)
(-0.00184414 -0.108813 8.08914e-21)
(-0.00730286 -0.190317 -9.56457e-21)
(-0.00193298 -0.130076 -6.92966e-21)
(-0.0227362 -0.336496 -2.54749e-20)
(-0.0164503 -0.305421 8.01446e-20)
(-0.011191 -0.240548 3.917e-21)
(-0.00291246 -0.25495 -4.4357e-20)
(-0.0029259 -0.17784 -3.26311e-20)
(6.57632e-05 -0.215222 1.76686e-20)
(-0.000725747 -0.14559 -3.3292e-21)
(-0.00272254 -0.22272 -6.0076e-21)
(-0.00274373 -0.154379 -6.27734e-20)
(-0.00545027 -0.248748 -8.82036e-21)
(-0.00490039 -0.242143 -3.98929e-20)
(-0.00292212 -0.171061 7.19762e-20)
(0.00656141 -0.254126 -4.34085e-20)
(0.00527102 -0.191419 -7.39966e-20)
(-0.216203 0.00789311 -9.73879e-21)
(-0.129395 0.00488693 0)
(-0.224494 0.0119187 -1.30619e-20)
(-0.150346 0.00584738 4.5713e-21)
(-0.240464 0.00202273 -4.39708e-20)
(-0.326719 0.00203578 0)
(-0.327512 0.000357366 -4.99791e-20)
(-0.243718 0.000647096 4.75232e-20)
(-0.00479459 0.673224 6.0568e-19)
(0.00255614 0.656837 4.08036e-19)
(0.0120767 0.361878 4.2297e-20)
(0.00625799 0.258364 2.25852e-19)
(-0.0205434 -0.0119931 1.40005e-19)
(-0.0153177 -0.014184 -2.70518e-20)
(-0.0246707 0.175639 -3.08265e-20)
(-0.0156582 0.134037 -5.8394e-20)
(0.0106084 -0.505889 2.59565e-20)
(-0.000547443 -0.504648 -1.62311e-20)
(0.00241726 -0.501374 4.22483e-21)
(-0.0486147 -0.521421 1.73804e-20)
(-0.0114781 -0.505822 -6.57757e-22)
(-0.00899713 -0.503279 2.97087e-20)
(-0.00629191 -0.17687 -9.15669e-20)
(-0.00979906 -0.256363 2.12254e-19)
(-0.011427 -0.276757 -1.05601e-19)
(-0.00755812 -0.195038 4.43024e-20)
(-0.168982 -0.032692 -1.17446e-20)
(-0.110586 -0.0193912 8.87671e-21)
(-0.0173945 -0.12672 7.30644e-20)
(-0.0102788 -0.068862 -7.51378e-21)
(-0.0116189 -0.137866 2.32354e-20)
(-0.0048092 -0.0859014 -2.51435e-21)
(-0.224015 -0.000299859 4.94034e-20)
(-0.304646 0.00300066 5.74291e-22)
(-0.304819 -0.00636615 -4.28333e-20)
(-0.220389 -0.000698005 -1.34938e-20)
(0.00788327 -0.270661 2.14751e-20)
(0.0135772 -0.291792 -8.6387e-20)
(0.00853305 -0.209552 1.30845e-19)
(-0.0099317 -0.0257264 -3.86565e-19)
(0.0135014 -0.0136034 4.00667e-19)
(0.0277518 0.00478175 -6.37498e-19)
(-0.266956 -0.0282872 1.34212e-19)
(-0.213046 -0.0317957 -5.16874e-20)
(-0.219201 0.00189697 2.15127e-22)
(-0.13409 -0.0019762 3.83912e-20)
(-0.189793 -0.029763 -6.31554e-20)
(-0.213799 -0.0241458 1.71029e-19)
(-0.129274 -0.0169085 -2.47445e-20)
(-0.00576505 0.353088 4.1141e-19)
(-0.00730931 0.262408 8.02967e-19)
(-0.001067 0.655734 1.09831e-18)
(0.0163336 0.632865 -3.58218e-19)
(-0.0182603 0.434946 -1.12445e-19)
(-0.0147051 0.359367 -9.93242e-19)
(-0.0411884 0.487583 7.21128e-19)
(-0.00356508 0.597846 -2.75053e-20)
(0.0235253 0.622592 2.40729e-19)
(-0.241519 0.0108393 -1.10201e-20)
(-0.247338 0.000952436 -1.29478e-20)
(-0.164866 0.00437837 -1.3565e-20)
(-0.309103 -0.00120145 -2.68687e-20)
(-0.309376 -0.00180512 4.4332e-21)
(-0.224734 -0.000721825 -7.99008e-20)
(-0.318539 0.00806342 -1.66399e-20)
(-0.308314 0.00270322 2.71327e-20)
(-0.231218 0.00373739 -5.84025e-21)
(-0.0355812 -0.0490807 2.61671e-20)
(-0.0174467 -0.0233825 1.27779e-22)
(-0.0206968 -0.0410482 -3.35775e-21)
(-0.0389246 -0.0740856 -1.0409e-20)
(-0.0397576 -0.0665575 7.97045e-22)
(-0.021101 -0.0375724 2.27676e-20)
(-0.0387668 -0.0958936 1.70225e-21)
(-0.0203298 -0.0563581 -2.74114e-21)
(-0.11961 -0.0418359 -2.63483e-20)
(-0.106315 -0.0469402 1.21149e-20)
(-0.062282 -0.0252873 1.23651e-21)
(-0.389365 -0.158011 4.37158e-21)
(-0.29574 -0.10989 -1.09259e-20)
(-0.0014724 -0.203169 -2.46712e-20)
(-0.000930614 -0.137372 1.60883e-20)
(-0.210663 0.00213146 -5.36479e-20)
(-0.205445 0.0120412 0)
(-0.123427 0.00416557 -5.42624e-20)
(-0.00256157 0.673497 1.49457e-19)
(0.000888734 0.349864 -5.46193e-19)
(0.00592522 0.352599 -2.88996e-19)
(0.00255417 0.251781 -6.50581e-19)
(-0.0054192 0.681881 -7.50014e-20)
(-0.00659161 0.68462 -1.2016e-18)
(-0.0326049 -0.0418068 -3.01988e-20)
(-0.0292876 -0.0310552 7.49216e-20)
(-0.0157602 -0.019443 -3.16597e-20)
(-0.0199783 0.316592 1.49135e-19)
(-0.0274583 0.251598 2.68555e-20)
(-0.0138501 0.192963 0)
(-0.00286302 -0.224266 1.54395e-19)
(-0.0109505 -0.237662 -7.36163e-20)
(-0.0048764 -0.161791 8.92131e-20)
(-0.0192962 -0.120421 -1.11988e-20)
(-0.0125523 -0.0671393 -2.16089e-21)
(-0.000727749 -0.169295 -1.831e-20)
(-0.00575016 -0.154177 -7.46169e-20)
(-0.00189221 -0.0980689 1.16213e-20)
(-0.027032 0.679092 2.74807e-19)
(-0.0206526 0.686978 -9.94797e-19)
(-0.0057139 0.388801 -5.26243e-19)
(-0.00942926 0.372591 -1.14403e-18)
(-0.00449203 0.288358 -4.51025e-19)
(-0.00271151 0.693173 7.51902e-19)
(0.00621287 0.686998 -3.61687e-19)
(-0.0385293 -0.0870889 3.69426e-21)
(-0.0384648 -0.0799818 4.61838e-21)
(-0.0208572 -0.0449246 -1.57423e-20)
(-0.0341978 -0.104208 -4.69293e-21)
(-0.0185674 -0.0599387 -1.56334e-21)
(-0.3167 -0.053187 9.00738e-20)
(-0.360049 -0.110837 1.22318e-19)
(-0.256663 -0.0677843 -8.67942e-21)
(0.00086155 -0.214704 1.08668e-20)
(0.000201812 -0.208703 -1.47199e-20)
(0.000346264 -0.142524 -9.2538e-21)
(-0.0253918 -0.117372 -2.01992e-20)
(-0.031958 -0.110153 1.30099e-20)
(-0.0161629 -0.0653826 8.19247e-21)
(-0.59876 0.00753033 1.36367e-20)
(-0.645173 0.0144941 7.02977e-21)
(0.0342872 -0.516412 1.50195e-21)
(0.0567834 -0.512509 1.52058e-19)
(-0.716212 0.011168 -1.49005e-19)
(-0.656502 -0.00775666 5.49104e-20)
(-0.0520842 -0.529324 3.4575e-20)
(-0.0600666 -0.519078 5.47545e-20)
(-0.0875238 0.509137 7.56843e-21)
(-0.0874899 0.118976 -9.38199e-20)
(-0.738259 -0.408233 5.7831e-20)
(-0.690677 -0.00395845 -4.80781e-20)
(-0.62594 0.00644879 7.63663e-20)
(-0.810338 0.00957015 2.98911e-20)
(-0.0304815 -0.563354 6.1541e-21)
(-0.0164931 -0.460651 -8.16191e-21)
(-0.000886456 -0.531585 -1.1762e-19)
(-0.00888933 -0.518765 9.58165e-20)
(-0.00789591 -0.534781 5.22916e-20)
(-0.695456 -0.0114166 -4.51187e-20)
(-0.617532 0.00575296 1.91353e-20)
(-0.640421 -0.0133173 0)
(-0.00121643 -0.513999 -1.67087e-20)
(-0.0431215 -0.526401 2.72727e-20)
(0.0418476 -0.5387 -3.44071e-20)
(-0.107076 -0.625984 4.40096e-20)
(-0.624499 0.00730838 -9.85958e-22)
(-0.583884 0.00531281 -1.12654e-19)
(-0.800828 0.0115675 2.79871e-20)
(-0.724934 0.0100296 5.75002e-21)
(-0.766904 0.0120161 1.24127e-20)
(0.00769468 -0.522385 -1.36443e-20)
(0.031419 -0.524277 -3.62307e-20)
(0.0149652 -0.512238 1.1417e-20)
(0.0416135 -0.550114 6.52083e-21)
(0.0563941 -0.529725 -3.02953e-20)
(0.0548906 -0.513591 -9.45406e-20)
(-0.609248 0.00858562 0)
(-0.706562 0.00450224 -1.33526e-19)
(-0.415713 -0.577374 -1.84451e-19)
(-0.808564 0.00846944 1.17439e-20)
(-0.763742 0.0134613 1.16627e-20)
(-0.790734 0.013395 5.29309e-20)
(-0.699823 -0.00407309 -7.69401e-20)
(-0.668037 -0.009217 -6.45571e-20)
(-0.648996 -0.0135223 3.63838e-20)
(-0.0467005 -0.542896 -9.49807e-20)
(-0.0574589 -0.534852 4.474e-20)
(-0.0536222 -0.511222 -1.43483e-19)
(-0.755812 -0.179772 4.33862e-20)
(-0.698492 -0.0642033 3.70382e-20)
(-0.19699 0.656799 -8.12933e-19)
(-0.208598 0.558751 -1.02809e-18)
(-0.214766 0.560013 2.36648e-19)
(-0.127588 0.493507 -2.32791e-19)
(-0.0937479 0.368472 -5.49286e-20)
(-0.0483559 0.582861 -3.10567e-19)
(-0.129014 0.692169 3.78898e-19)
(-0.096207 0.594291 -7.57215e-19)
(-0.070817 0.685173 -2.50246e-19)
(-0.235741 -0.132722 0)
(-0.195821 -0.135473 -1.09396e-20)
(-0.735442 -0.437984 -3.18927e-19)
(-0.664516 -0.458178 -3.33783e-19)
(-0.768648 -0.384334 -8.42982e-20)
(-0.744992 -0.335991 9.32392e-20)
(-0.710169 -0.00124016 2.23892e-20)
(-0.655733 0.000603412 2.11994e-20)
(-0.643439 0.00895618 -2.24259e-20)
(-0.58336 0.00534349 6.73606e-20)
(-0.817601 0.00973027 1.54951e-20)
(-0.811086 0.00660707 -3.62436e-20)
(-0.807766 0.00749831 -4.33168e-21)
(-0.765839 -0.000249805 2.13043e-20)
(-0.760992 0.00530556 -7.38824e-21)
(-0.766634 0.0075923 -4.27235e-21)
(-0.0299373 -0.573112 2.51652e-19)
(-0.0163607 -0.513513 1.54488e-20)
(-0.0352561 -0.581448 -1.65661e-19)
(-0.0354243 -0.561865 2.0718e-19)
(-0.0262231 -0.469364 -2.68803e-20)
(-0.0220476 -0.416113 2.14933e-20)
(-0.0187566 -0.488519 -7.84947e-21)
(-0.00904842 -0.43454 4.1146e-21)
(-0.011513 -0.480776 2.87987e-20)
(-0.00100649 -0.548483 2.92774e-21)
(0.00349405 -0.494455 1.44945e-20)
(0.00067717 -0.544462 -1.24009e-20)
(-0.000692681 -0.509181 -9.14232e-21)
(-0.00957994 -0.629141 1.1047e-20)
(-0.00895676 -0.545823 5.98389e-21)
(-0.0106028 -0.53828 -1.83349e-20)
(-0.00731065 -0.502488 -9.76046e-21)
(-0.00864449 -0.550327 1.8196e-20)
(-0.0130212 -0.497666 9.0139e-20)
(-0.00589811 -0.626499 -9.15432e-20)
(-0.00740557 -0.578733 -1.46787e-20)
(-0.0113966 -0.581724 3.55995e-20)
(-0.712074 -0.00377526 -7.36616e-21)
(-0.677589 0.000780388 5.57239e-20)
(-0.705377 -0.0187103 -1.29084e-21)
(-0.630749 -0.0126533 6.34919e-21)
(-0.628061 0.00342625 8.62724e-21)
(-0.585728 0.00549028 -1.34892e-20)
(-0.64798 -0.00844439 -1.25142e-20)
(-0.638901 0.00169864 1.89052e-20)
(-0.593439 0.000810447 2.222e-21)
(-0.700729 -0.0522612 -5.62503e-20)
(-0.667882 -0.0241115 9.08356e-20)
(-0.6354 -0.030027 -2.90856e-20)
(-0.040967 -0.533881 -9.91877e-20)
(-0.0131876 -0.526145 -3.60045e-20)
(-0.0187319 -0.514475 -6.67242e-20)
(-0.0395242 -0.53892 7.13201e-20)
(-0.0321799 -0.505223 -4.71826e-20)
(-0.000753339 -0.557742 4.24827e-20)
(0.00901091 -0.536969 1.14561e-20)
(0.0281661 -0.564164 -4.66191e-20)
(0.0333892 -0.551081 -4.90379e-20)
(0.0251826 -0.541696 5.36353e-21)
(0.0378291 -0.550852 1.3028e-21)
(0.032473 -0.519743 8.87703e-21)
(-0.140127 -0.645624 1.50404e-20)
(-0.163193 -0.627994 5.06093e-20)
(-0.0538041 -0.296843 -8.27496e-21)
(-0.0409947 -0.337025 7.95136e-20)
(-0.125458 -0.56686 2.47014e-19)
(-0.637559 0.0028635 4.71897e-20)
(-0.614976 0.00315359 -1.39851e-19)
(-0.597678 0.00213646 9.71259e-21)
(-0.802578 0.00996182 0)
(-0.798615 0.0117692 -1.02229e-20)
(-0.724892 0.00696095 -1.0315e-20)
(-0.708579 0.00532915 -5.48797e-20)
(-0.7058 0.00466488 -5.82437e-20)
(-0.719031 0.00825196 -2.87326e-20)
(-0.679364 0.00715743 4.11727e-20)
(-0.724898 0.0031511 -1.71477e-20)
(-0.66693 0.00456711 1.36491e-20)
(-0.390375 -0.602351 -1.91644e-19)
(-0.321532 -0.604448 6.15068e-20)
(-0.46862 -0.56839 -2.11301e-19)
(-0.494931 -0.536364 -4.64365e-19)
(-0.10221 -0.144429 0)
(-0.40692 -0.0805929 -4.07169e-20)
(-0.733691 -0.0892215 -1.92843e-19)
(-0.764927 -0.152065 -8.97965e-20)
(-0.69863 -0.109694 1.24625e-19)
(-0.763955 -0.141467 -3.0477e-19)
(-0.431653 0.372805 2.11323e-21)
(-0.37481 0.45366 -1.33124e-18)
(-0.405839 0.479243 -7.51136e-19)
(-0.410697 0.2298 1.95823e-19)
(-0.125198 0.185352 -1.79441e-20)
(-0.121184 0.33075 6.40962e-20)
(-0.0814975 0.217599 1.28955e-19)
(-0.28824 0.29103 3.28546e-20)
(-0.278302 0.215558 -1.41679e-19)
(-0.0209971 0.635297 6.28396e-19)
(-0.0257656 0.695846 1.8478e-19)
(-0.0402762 0.677428 -4.11827e-19)
(-0.0548495 0.697162 -7.02366e-19)
(-0.0432623 0.647551 2.33851e-19)
(-0.0777759 -0.0876725 -3.91763e-20)
(-0.58048 -0.292126 6.96131e-19)
(-0.581753 -0.499523 3.85495e-19)
(-0.55735 -0.526917 1.81637e-19)
(-0.63319 -0.505016 -2.69467e-19)
(-0.652795 -0.485573 -8.41848e-21)
(-0.31 -0.106214 3.05395e-19)
(-0.268403 -0.139316 -1.09789e-20)
(-0.23907 -0.111702 2.29309e-20)
(-0.230485 -0.161227 3.39733e-19)
(-0.149017 -0.117986 2.41282e-19)
(-0.26178 -0.153268 -2.39277e-19)
(-0.405877 -0.240993 -1.54562e-19)
(-0.398216 -0.22345 2.40143e-19)
(-0.225921 -0.145393 7.88027e-20)
(-0.176363 -0.112509 1.16131e-19)
(-0.721254 -0.382 7.54244e-20)
(-0.791483 -0.219431 -2.2352e-19)
(-0.779513 -0.297032 -3.68151e-19)
(-0.748543 -0.249949 -5.80699e-20)
(-0.32135 -0.116262 2.79373e-20)
(-0.718346 -0.369455 1.98813e-19)
(-0.616734 -0.314318 -2.38128e-20)
(-0.771287 -0.329953 5.9859e-20)
(-0.693355 0.00784971 1.44665e-20)
(-0.686883 0.00324565 -1.88876e-20)
(-0.657804 0.00477991 -6.36555e-20)
(-0.621995 0.00351992 2.33567e-20)
(-0.609342 0.00491231 1.64219e-19)
(-0.579912 0.00179198 4.59382e-21)
(-0.817095 0.00982867 -6.72824e-21)
(-0.783497 0.00704717 -7.84823e-20)
(-0.807076 0.00877038 -2.05489e-22)
(-0.783311 0.00719219 2.4325e-20)
(-0.815885 0.00595079 2.65411e-20)
(-0.818029 0.0080804 -2.26714e-20)
(-0.0143394 -0.535525 1.81995e-20)
(-0.00868872 -0.498751 8.17929e-20)
(-0.050908 -0.640187 -7.71461e-20)
(-0.0928309 -0.63301 6.3761e-20)
(-0.052753 -0.598134 -2.47139e-21)
(-0.0589762 -0.588063 -4.13394e-19)
(-0.0667301 -0.642692 7.47105e-20)
(-0.061688 -0.652275 9.73996e-20)
(-0.0534524 -0.651944 -1.03327e-19)
(-0.0986301 -0.570662 5.56479e-20)
(-0.0801758 -0.507097 1.02775e-19)
(-0.0763901 -0.655718 1.48096e-20)
(-0.103693 -0.658796 -1.47302e-20)
(-0.0834154 -0.653919 7.25363e-20)
(-0.117934 -0.652275 -1.31046e-19)
(-0.0843972 -0.633462 1.37611e-19)
(-0.099282 -0.632628 -6.52654e-23)
(-0.0211667 -0.605431 1.05493e-20)
(-0.0129958 -0.491882 3.38568e-20)
(-0.023517 -0.568755 3.26577e-20)
(-0.0217046 -0.574523 -8.38425e-21)
(-0.011623 -0.472308 -9.25849e-20)
(-0.00988557 -0.444655 -8.55418e-21)
(-0.00477551 -0.643672 1.69255e-20)
(-0.00697672 -0.64416 -1.29492e-21)
(-0.00807456 -0.616514 -4.09056e-21)
(-0.00621599 -0.611519 3.62214e-20)
(-0.0109339 -0.529631 2.51408e-21)
(-0.0151393 -0.508863 9.45909e-21)
(-0.0087525 -0.486561 -3.80836e-20)
(-0.00559092 -0.633545 -1.573e-19)
(-0.00342532 -0.642962 -4.06034e-20)
(0.00614949 -0.519516 -3.05275e-20)
(0.0168334 -0.485871 2.45935e-20)
(-0.0156927 -0.645654 1.13243e-20)
(-0.0119171 -0.639871 -9.34458e-22)
(-0.0102095 -0.64736 -2.35126e-20)
(-0.0213583 -0.648786 -6.3238e-20)
(-0.0256559 -0.580575 7.08173e-20)
(-0.0298202 -0.571823 -1.26841e-19)
(-0.0273273 -0.582823 -1.15931e-19)
(-0.0107998 -0.628733 1.1679e-19)
(-0.0162173 -0.59632 2.81766e-21)
(-0.0143415 -0.600446 -4.75884e-20)
(-0.696478 0.00444488 0)
(-0.695325 0.00378208 -6.95959e-21)
(-0.663393 0.00410138 -4.502e-20)
(-0.775988 -0.0560692 7.5162e-20)
(-0.651809 -0.0194145 3.381e-20)
(-0.616328 -0.02875 3.5004e-20)
(-0.781512 -0.0716199 -3.96124e-19)
(-0.626748 0.011833 -5.62243e-21)
(-0.602778 0.00721596 -9.71097e-21)
(-0.569655 0.00910884 5.71528e-20)
(-0.707517 -0.0109393 2.74624e-21)
(-0.7048 -0.00965226 2.31659e-20)
(-0.791028 -0.031965 1.50674e-19)
(-0.802799 -0.023043 -1.01094e-20)
(-0.824629 -0.0190875 3.6054e-20)
(-0.784942 -0.0111617 6.94058e-21)
(-0.81318 0.0110304 -2.3306e-20)
(-0.798955 0.00728003 -8.61386e-21)
(-0.824168 -0.00995359 9.61151e-21)
(-0.828212 -0.00437517 -5.20039e-20)
(-0.769764 -0.00792704 -5.12207e-20)
(-0.803282 -0.0153025 2.79243e-20)
(-0.793786 -0.0435704 -1.95689e-19)
(-0.727482 -0.0389976 9.55266e-20)
(-0.732217 -0.0476877 -5.00716e-20)
(-0.0290011 -0.571953 -2.05048e-20)
(-0.0195427 -0.54069 1.07802e-19)
(-0.015476 -0.555867 4.1306e-20)
(-0.0416025 -0.566057 -2.27241e-19)
(-0.0401778 -0.548462 1.33158e-19)
(-0.0443804 -0.555355 4.143e-20)
(-0.0154653 -0.524457 1.51867e-19)
(-0.0263697 -0.579221 5.11386e-21)
(-0.0195208 -0.583461 3.39492e-20)
(-0.0271952 -0.521663 -3.71876e-20)
(-0.0214839 -0.491215 -2.32749e-20)
(0.0203537 -0.575805 -6.78915e-21)
(0.000992084 -0.569722 1.70989e-20)
(-0.169776 -0.656868 -9.24216e-20)
(-0.14448 -0.654947 1.29732e-19)
(-0.296056 -0.627203 -7.79949e-20)
(-0.208128 -0.6417 2.82497e-20)
(-0.234924 -0.619514 -6.35528e-20)
(-0.0670108 -0.307956 3.58756e-20)
(-0.0619004 -0.260321 1.69036e-20)
(-0.0482505 -0.347508 6.90404e-21)
(-0.0748086 -0.441331 2.37213e-20)
(-0.0846178 -0.42982 -1.73753e-19)
(-0.0570025 -0.328235 3.56335e-20)
(-0.0414854 -0.28998 3.13172e-20)
(-0.0338075 -0.418133 -2.31703e-20)
(-0.0442817 -0.374989 -3.00326e-20)
(-0.0275745 -0.356453 6.18366e-20)
(-0.0934973 -0.205509 1.107e-20)
(-0.0803944 -0.241287 -5.0598e-20)
(-0.797843 0.00876463 2.26484e-20)
(-0.716838 0.00819058 -2.61767e-21)
(-0.708604 0.0103354 3.5096e-20)
(-0.778176 0.0126283 -5.1459e-20)
(-0.801168 0.00956731 -2.79084e-20)
(-0.393424 -0.601613 -2.32858e-20)
(-0.425008 -0.562449 3.13049e-19)
(-0.524143 -0.548158 -8.35818e-20)
(-0.475528 -0.541632 -5.73205e-20)
(-0.117093 -0.169333 -1.95441e-20)
(-0.0805765 -0.133561 -4.75954e-20)
(-0.245146 -0.398513 2.69225e-19)
(-0.198177 -0.455732 3.32345e-19)
(-0.17987 -0.397534 -9.0533e-20)
(-0.198376 -0.384294 -1.95101e-19)
(-0.427013 -0.0984112 -2.53758e-20)
(-0.360671 -0.088352 -5.12395e-20)
(-0.609174 -0.116234 1.46702e-19)
(-0.439741 -0.0768545 -2.17732e-21)
(-0.410005 -0.0597273 -8.76729e-21)
(-0.851508 -0.229567 5.17285e-20)
(-0.773759 -0.253015 -4.17576e-20)
(-0.678439 -0.237042 -8.57867e-20)
(-0.777647 -0.219336 2.82934e-20)
(-0.656252 -0.146955 -3.40085e-20)
(-0.633073 -0.166919 4.23412e-20)
(-0.687209 -0.205628 2.39467e-19)
(-0.628028 -0.180914 5.63728e-21)
(-0.75716 -0.165612 1.6179e-20)
(-0.818957 -0.195034 4.27742e-20)
(-0.813723 -0.209404 8.83424e-20)
(-0.79987 -0.119936 -1.43274e-19)
(-0.843032 -0.166666 5.37823e-20)
(-0.855758 -0.187991 -2.85476e-19)
(-0.804291 -0.1415 -1.67859e-19)
(-0.789742 -0.0305668 -7.77326e-21)
(-0.833243 -0.0383259 -2.21405e-19)
(-0.818564 -0.0235649 4.23388e-20)
(-0.830622 -0.0552022 -3.02551e-20)
(-0.787993 -0.0401341 -1.74842e-20)
(-0.736621 -0.110095 -3.63012e-20)
(-0.745744 -0.0875022 -3.40759e-19)
(-0.625075 -0.041975 -2.34974e-20)
(-0.556787 -0.04746 1.85989e-19)
(-0.812335 -0.101063 9.33934e-20)
(-0.834868 -0.113314 1.04381e-19)
(-0.848487 -0.141766 3.50041e-19)
(-0.804662 -0.122915 -1.12616e-19)
(-0.831795 -0.0875701 1.89291e-19)
(-0.831249 -0.0668059 3.2221e-20)
(-0.827155 -0.0738868 1.10158e-19)
(-0.35638 -0.43521 -7.51107e-20)
(-0.293715 -0.344029 -3.41845e-19)
(-0.225275 -0.252267 -1.12613e-19)
(-0.17316 -0.1538 3.08153e-21)
(-0.115202 -0.145922 4.77612e-20)
(-0.0960908 -0.110191 -6.96891e-21)
(-0.0793994 -0.0996176 -3.95078e-20)
(-0.159321 -0.162084 1.19e-20)
(-0.165118 -0.183648 8.35842e-20)
(-0.135282 -0.109175 6.76338e-20)
(-0.0904257 -0.0853793 1.03062e-20)
(-0.0616067 -0.0549095 -2.36534e-19)
(-0.521202 -0.279751 -1.2889e-20)
(-0.55166 0.212459 -1.5679e-18)
(-0.492782 -0.0257252 -2.57452e-19)
(-0.498434 0.0654914 -1.90015e-18)
(-0.207753 -0.136955 -9.02188e-20)
(-0.37875 -0.188498 -8.71807e-20)
(-0.420389 -0.18464 -1.14073e-19)
(-0.280855 -0.129984 8.14139e-19)
(-0.171335 -0.106 -2.03341e-19)
(-0.33859 -0.136409 2.34754e-21)
(-0.285399 -0.120759 2.63329e-20)
(-0.258834 -0.10679 1.16002e-19)
(-0.589515 -0.307046 6.36647e-20)
(-0.465256 -0.260693 1.1229e-19)
(-0.408187 -0.214446 4.45811e-20)
(-0.382269 -0.211242 -9.88089e-20)
(-0.628471 -0.323602 -1.09197e-18)
(-0.702152 -0.447996 3.68051e-19)
(-0.660336 -0.440368 -5.33592e-20)
(-0.721774 -0.451254 6.92721e-20)
(-0.706565 -0.483787 2.10025e-19)
(-0.672472 -0.494422 -5.19942e-19)
(-0.754019 -0.416201 -6.64391e-20)
(-0.756455 -0.441951 -2.77978e-19)
(-0.750996 -0.457719 -1.35094e-19)
(-0.77761 -0.439702 -1.56335e-19)
(-0.813325 -0.278468 7.75878e-20)
(-0.852444 -0.265321 -5.48622e-20)
(-0.845558 -0.244963 -8.81393e-20)
(-0.802716 -0.305016 -2.16184e-19)
(-0.834132 -0.341233 -1.01523e-19)
(-0.839271 -0.30578 2.19608e-19)
(-0.701984 -0.292547 5.05644e-20)
(-0.481071 -0.196414 -9.74381e-20)
(-0.521182 -0.181204 1.62003e-19)
(-0.675083 -0.252538 4.50561e-19)
(-0.760903 -0.354307 -3.14113e-20)
(-0.732848 -0.36498 -9.86452e-20)
(-0.728306 -0.352002 -1.07303e-20)
(-0.624686 -0.303949 1.45061e-19)
(-0.603195 -0.309652 5.51003e-20)
(-0.457563 -0.245005 -2.40387e-20)
(-0.700834 0.00706539 1.49074e-21)
(-0.817817 0.00872088 1.04946e-20)
(-0.774564 0.0111753 4.86038e-21)
(-0.712135 0.00942167 4.93129e-21)
(-0.816383 0.0116101 -8.19884e-21)
(-0.804278 0.00943043 7.50022e-21)
(-0.786143 0.0094728 -1.27119e-20)
(-0.771282 0.0127578 -6.2415e-20)
(-0.805602 0.00905909 6.40771e-21)
(-0.78356 0.00907149 1.05331e-20)
(-0.769707 0.00942354 -2.93183e-20)
(-0.000835691 -0.525167 4.41833e-20)
(-0.00595035 -0.603759 7.36815e-21)
(-0.00799045 -0.521132 -5.62891e-20)
(-0.00404884 -0.496726 8.76714e-20)
(-0.0259315 -0.635766 -4.53328e-20)
(-0.0302569 -0.636962 -2.8172e-20)
(-0.0466385 -0.65777 7.80733e-21)
(-0.0441807 -0.657241 4.31151e-19)
(-0.0148018 -0.639675 8.68334e-21)
(-0.0203687 -0.645422 -6.49214e-20)
(-0.0233734 -0.632695 3.21741e-20)
(-0.0158842 -0.611177 -1.3426e-20)
(-0.00814161 -0.60935 4.84546e-20)
(-0.00823374 -0.612765 9.30058e-21)
(-0.0317877 -0.574605 3.18076e-20)
(-0.0370304 -0.569905 2.08115e-20)
(-0.0459129 -0.59274 2.65935e-20)
(-0.0462795 -0.638174 -8.89655e-20)
(-0.0702302 -0.59375 2.66039e-20)
(-0.0544039 -0.481322 2.30228e-20)
(-0.0623277 -0.469347 1.2706e-19)
(-0.0685034 -0.512268 -3.00621e-20)
(-0.0594329 -0.598526 2.4861e-20)
(-0.0508774 -0.585583 -7.9646e-20)
(-0.0451086 -0.507235 -2.20165e-20)
(-0.0143417 -0.632899 8.573e-20)
(-0.0118453 -0.574557 -6.75265e-20)
(-0.0117334 -0.625969 3.80297e-20)
(-0.0170481 -0.573726 9.44287e-22)
(-0.0160818 -0.601381 -1.89726e-20)
(0.00363883 -0.614134 -5.40735e-20)
(0.00819089 -0.60676 -8.29042e-21)
(0.00869075 -0.613871 -1.34386e-22)
(-0.00177774 -0.638644 -1.98868e-20)
(-0.00124329 -0.638269 1.30093e-20)
(0.00745978 -0.60912 -1.12121e-20)
(0.0300362 -0.533395 1.64322e-20)
(0.0243849 -0.58449 -3.48803e-20)
(0.0214243 -0.585728 -2.88578e-20)
(0.0229777 -0.516899 -3.80442e-20)
(0.0237212 -0.501087 -2.13291e-20)
(-0.698832 0.00747931 -5.09242e-21)
(-0.693946 0.00325207 -1.47822e-21)
(-0.808876 0.00370237 6.14663e-20)
(-0.77113 -0.00249549 -2.44943e-20)
(-0.704904 0.00196192 1.35937e-20)
(-0.814967 0.00910656 9.92429e-20)
(-0.816216 0.00841439 -1.04774e-20)
(-0.82097 0.00434411 -3.01868e-20)
(-0.798263 0.00570075 -4.43837e-21)
(-0.779986 0.00394213 5.96417e-21)
(-0.819259 -0.000583523 -6.2173e-20)
(-0.791987 -0.00359467 5.15661e-20)
(-0.778995 0.00413103 -4.01226e-20)
(-0.0131162 -0.604558 -6.00475e-20)
(-0.00156764 -0.588731 1.09417e-20)
(-0.0132442 -0.595195 9.68541e-20)
(0.0222444 -0.588027 6.43458e-21)
(0.0073719 -0.598863 -1.09619e-20)
(0.0187963 -0.587173 -4.06259e-21)
(0.0268446 -0.574701 1.65946e-20)
(-0.182925 -0.561661 -1.67774e-19)
(-0.168831 -0.631365 -5.26345e-20)
(-0.1574 -0.57485 -2.8471e-19)
(-0.204621 -0.632452 -3.00539e-20)
(-0.233922 -0.653908 6.1545e-20)
(-0.200884 -0.656733 4.68301e-20)
(-0.166307 -0.315707 1.74123e-19)
(-0.105635 -0.218053 8.95147e-21)
(-0.0875679 -0.173908 0)
(-0.0949181 -0.252327 6.27082e-21)
(-0.132946 -0.332253 6.55282e-20)
(-0.138288 -0.319795 -3.03009e-20)
(-0.103652 -0.234953 6.1923e-20)
(-0.0808804 -0.203393 -2.83779e-20)
(-0.171183 -0.510035 1.00411e-19)
(-0.14467 -0.383458 -1.05286e-19)
(-0.171281 -0.464363 -3.86762e-20)
(-0.0752456 -0.273587 8.94983e-20)
(-0.0842068 -0.271143 1.89623e-21)
(-0.0660423 -0.234098 -1.96771e-21)
(-0.124963 -0.37398 5.07853e-20)
(-0.481382 -0.482119 2.30356e-19)
(-0.441351 -0.341601 -3.50973e-19)
(-0.509758 -0.367505 -3.74749e-19)
(-0.398447 -0.423995 2.70776e-20)
(-0.398234 -0.361755 -1.78035e-19)
(-0.624935 -0.448444 0)
(-0.572377 -0.520444 -1.40847e-19)
(-0.607473 -0.505072 1.04014e-19)
(-0.538487 -0.463568 -4.18089e-19)
(-0.57722 -0.433631 -4.32606e-20)
(-0.175094 -0.238602 1.02845e-20)
(-0.219265 -0.273356 9.80691e-21)
(-0.258332 -0.346559 1.60098e-20)
(-0.238834 -0.363988 6.64449e-20)
(-0.165161 -0.245021 5.59451e-20)
(-0.17682 -0.279171 9.99761e-21)
(-0.0987436 -0.163635 1.36729e-20)
(-0.0822161 -0.139629 1.96035e-20)
(-0.292933 -0.491865 1.2099e-19)
(-0.3483 -0.47472 -6.24562e-19)
(-0.379257 -0.545527 3.83826e-19)
(-0.47435 -0.142242 -3.46226e-19)
(-0.379242 -0.101635 1.87101e-20)
(-0.312292 -0.0877945 -5.54628e-20)
(-0.47232 -0.152158 -8.08187e-20)
(-0.349201 -0.109534 -8.55134e-20)
(-0.565821 -0.0655054 -1.17063e-19)
(-0.625023 -0.0938175 -4.63221e-19)
(-0.600277 -0.103093 5.82426e-20)
(-0.444355 -0.0549079 2.62965e-19)
(-0.438513 -0.0420198 -2.32446e-19)
(-0.0851829 -0.049974 -1.44136e-19)
(-0.139038 -0.0855487 -1.91797e-20)
(-0.0595708 -0.0176598 -5.35916e-19)
(-0.106317 0.0624075 4.85446e-20)
(-0.168954 0.0172884 -1.00985e-19)
(-0.457961 -0.200313 -1.05008e-18)
(-0.410464 -0.243248 2.21796e-19)
(-0.572075 -0.0934475 1.1179e-18)
(-0.616915 -0.191874 -1.39093e-18)
(-0.541483 -0.119619 -1.63994e-19)
(-0.540948 -0.174199 -1.49728e-18)
(-0.565636 -0.270616 -3.54691e-20)