/*--------------------------------*- C++ -*----------------------------------*\
| =========                 |                                                 |
| \\      /  F ield         | foam-extend: Open Source CFD                    |
|  \\    /   O peration     | Version:     4.0                                |
|   \\  /    A nd           | Web:         http://www.foam-extend.org         |
|    \\/     M anipulation  |                                                 |
\*---------------------------------------------------------------------------*/
FoamFile
{
    version     2.0;
    format      ascii;
    class       regIOobject;
    location    "1/uniform";
    object      profilingInfo;
}
// * * * * * * * * * * * * * * * * * * * * * * * * * * * * * * * * * * * * * //

profilingInfo
(

    {
        id              8;
        parentId        7;
        description     "Foam::Time::writeObject - outputTime";
        calls           1;
        totalTime       0.089055;
        childTime       0;
        onStack         1;
    }

    {
        id              7;
        parentId        1;
        description     "Foam::Time::writeObject";
        calls           1;
        totalTime       0.094355;
        childTime       0.089055;
        onStack         1;
    }

    {
        id              1;
        description     "application::main";
        calls           1;
        totalTime       0.218268;
        childTime       0.111596;
        onStack         1;
    }

    {
        id              4;
        parentId        3;
        description     "FO::probes::start";
        calls           1;
        totalTime       0.013149;
        childTime       0;
        onStack         0;
    }

    {
        id              3;
        parentId        2;
        description     "functionObjectList::read";
        calls           1;
        totalTime       0.016736;
        childTime       0.013149;
        onStack         0;
    }

    {
        id              2;
        parentId        1;
        description     "functionObjects_.start()";
        calls           1;
        totalTime       0.016756;
        childTime       0.016736;
        onStack         0;
    }

    {
        id              5;
        parentId        1;
        description     "fvMatrix::solve_T";
        calls           1;
        totalTime       0.000485;
        childTime       0.000313;
        onStack         0;
    }

    {
        id              6;
        parentId        5;
        description     "lduMatrix::solver_T";
        calls           1;
        totalTime       0.000313;
        childTime       0;
        onStack         0;
    }
);


// ************************************************************************* //
