/*--------------------------------*- C++ -*----------------------------------*\
| =========                 |                                                 |
| \\      /  F ield         | foam-extend: Open Source CFD                    |
|  \\    /   O peration     | Version:     4.0                                |
|   \\  /    A nd           | Web:         http://www.foam-extend.org         |
|    \\/     M anipulation  |                                                 |
\*---------------------------------------------------------------------------*/
FoamFile
{
    version     2.0;
    format      ascii;
    class       volScalarField;
    location    "1";
    object      gradTy;
}
// * * * * * * * * * * * * * * * * * * * * * * * * * * * * * * * * * * * * * //

dimensions      [0 -1 0 1 0 0 0];

internalField   nonuniform List<scalar> 
400
(
-123.159
-147.439
-158.04
-163.375
-166.367
-168.171
-169.299
-170.005
-170.421
-170.614
-170.614
-170.421
-170.005
-169.299
-168.171
-166.367
-163.375
-158.04
-147.439
-123.159
-48.5272
-94.0046
-117.395
-130.478
-138.299
-143.195
-146.328
-148.316
-149.494
-150.044
-150.044
-149.494
-148.316
-146.328
-143.195
-138.299
-130.478
-117.395
-94.0046
-48.5272
-25.4728
-62.6576
-87.0574
-102.841
-113.157
-119.982
-124.504
-127.435
-129.196
-130.023
-130.023
-129.196
-127.435
-124.504
-119.982
-113.157
-102.841
-87.0574
-62.6576
-25.4728
-16.1792
-44.0958
-65.3363
-80.6725
-91.5076
-99.0723
-104.272
-107.725
-109.832
-110.831
-110.831
-109.832
-107.725
-104.272
-99.0723
-91.5076
-80.6725
-65.3363
-44.0958
-16.1792
-11.3277
-32.2101
-49.5196
-63.0053
-73.1283
-80.5275
-85.7866
-89.3621
-91.5775
-92.6363
-92.6363
-91.5775
-89.3621
-85.7866
-80.5275
-73.1283
-63.0053
-49.5196
-32.2101
-11.3277
-8.24931
-23.8973
-37.527
-48.701
-57.4731
-64.1232
-68.9849
-72.3593
-74.4796
-75.5012
-75.5012
-74.4796
-72.3593
-68.9849
-64.1232
-57.4731
-48.701
-37.527
-23.8973
-8.24931
-6.02157
-17.6028
-27.9901
-36.7986
-43.9402
-49.5074
-53.6707
-56.6107
-58.4805
-59.3879
-59.3879
-58.4805
-56.6107
-53.6707
-49.5074
-43.9402
-36.7986
-27.9901
-17.6028
-6.02157
-4.25579
-12.5022
-20.0323
-26.5633
-31.9817
-36.2956
-39.58
-41.9326
-43.4441
-44.1821
-44.1821
-43.4441
-41.9326
-39.58
-36.2956
-31.9817
-26.5633
-20.0323
-12.5022
-4.25579
-2.75513
-8.11814
-13.0735
-17.4407
-21.1277
-24.1134
-26.4214
-28.0955
-29.1813
-29.7145
-29.7145
-29.1813
-28.0955
-26.4214
-24.1134
-21.1277
-17.4407
-13.0735
-8.11814
-2.75513
-1.40172
-4.14172
-6.70291
-8.99841
-10.975
-12.6089
-13.8968
-14.8468
-15.4711
-15.7802
-15.7802
-15.4711
-14.8468
-13.8968
-12.6089
-10.975
-8.99841
-6.70291
-4.14172
-1.40172
-0.111767
-0.344113
-0.598024
-0.875044
-1.16515
-1.45045
-1.71005
-1.92403
-2.07613
-2.15504
-2.15504
-2.07613
-1.92403
-1.71005
-1.45045
-1.16515
-0.875044
-0.598024
-0.344113
-0.111767
1.187
3.47505
5.52997
7.26141
8.63993
9.68228
10.4311
10.9369
11.2457
11.3912
11.3912
11.2457
10.9369
10.4311
9.68228
8.63993
7.26141
5.52997
3.47505
1.187
2.57171
7.52738
11.9815
15.7508
18.7812
21.1086
22.8152
23.9949
24.7307
25.083
25.083
24.7307
23.9949
22.8152
21.1086
18.7812
15.7508
11.9815
7.52738
2.57171
4.14418
12.0813
19.1177
24.9792
29.6255
33.1558
35.7264
37.4967
38.5994
39.1272
39.1272
38.5994
37.4967
35.7264
33.1558
29.6255
24.9792
19.1177
12.0813
4.14418
6.06789
17.536
27.4289
35.4229
41.5858
46.1628
49.4381
51.6662
53.0431
53.6992
53.6992
53.0431
51.6662
49.4381
46.1628
41.5858
35.4229
27.4289
17.536
6.06789
8.65929
24.566
37.639
47.6979
55.1322
60.4714
64.1973
66.687
68.2077
68.9276
68.9276
68.2077
66.687
64.1973
60.4714
55.1322
47.6979
37.639
24.566
8.65929
12.6626
34.43
50.8631
62.5975
70.7741
76.3934
80.1929
82.6771
84.1732
84.876
84.876
84.1732
82.6771
80.1929
76.3934
70.7741
62.5975
50.8631
34.43
12.6626
20.2235
49.6284
68.7862
81.0552
88.9733
94.1356
97.5041
99.6555
100.932
101.527
101.527
100.932
99.6555
97.5041
94.1356
88.9733
81.0552
68.7862
49.6284
20.2235
38.8267
75.0739
93.5983
103.864
109.928
113.672
116.033
117.509
118.374
118.774
118.774
118.374
117.509
116.033
113.672
109.928
103.864
93.5983
75.0739
38.8267
98.8363
118.242
126.669
130.874
133.205
134.591
135.446
135.973
136.28
136.422
136.422
136.28
135.973
135.446
134.591
133.205
130.874
126.669
118.242
98.8363
)
;

boundaryField
{
    up
    {
        type            calculated;
        value           uniform 145.316;
    }
    down
    {
        type            calculated;
        value           uniform -180.996;
    }
    left
    {
        type            calculated;
        value           nonuniform List<scalar> 
20
(
-123.159
-48.5272
-25.4728
-16.1792
-11.3277
-8.24931
-6.02157
-4.25579
-2.75513
-1.40172
-0.111767
1.187
2.57171
4.14418
6.06789
8.65929
12.6626
20.2235
38.8267
98.8363
)
;
    }
    right
    {
        type            calculated;
        value           nonuniform List<scalar> 
20
(
-123.159
-48.5272
-25.4728
-16.1792
-11.3277
-8.24931
-6.02157
-4.25579
-2.75513
-1.40172
-0.111767
1.187
2.57171
4.14418
6.06789
8.65929
12.6626
20.2235
38.8267
98.8363
)
;
    }
    frontAndBack
    {
        type            empty;
    }
}


// ************************************************************************* //
