/*--------------------------------*- C++ -*----------------------------------*\
| =========                 |                                                 |
| \\      /  F ield         | foam-extend: Open Source CFD                    |
|  \\    /   O peration     | Version:     4.0                                |
|   \\  /    A nd           | Web:         http://www.foam-extend.org         |
|    \\/     M anipulation  |                                                 |
\*---------------------------------------------------------------------------*/
FoamFile
{
    version     2.0;
    format      ascii;
    class       volScalarField;
    location    "1";
    object      gradTx;
}
// * * * * * * * * * * * * * * * * * * * * * * * * * * * * * * * * * * * * * //

dimensions      [0 -1 0 1 0 0 0];

internalField   nonuniform List<scalar> 
400
(
307.007
215.614
159.102
118.528
86.2808
58.8293
34.3099
11.6254
-9.93719
-30.8913
-51.6525
-72.6069
-94.17
-116.855
-141.376
-168.828
-201.077
-241.653
-298.166
-389.562
217.405
180.733
143.166
110.201
81.4855
55.8974
32.475
10.5037
-10.5457
-31.0843
-51.4595
-71.9983
-93.0482
-115.02
-138.444
-164.033
-192.75
-225.717
-263.285
-299.96
164.475
146.746
122.63
97.6235
73.5633
50.8001
29.1892
8.45993
-11.6651
-31.4409
-51.1029
-70.8789
-91.0045
-111.734
-133.346
-156.111
-180.172
-205.18
-229.299
-247.03
129.274
119.148
102.983
84.1006
64.3445
44.5505
25.0219
5.81196
-13.1337
-31.9115
-50.6323
-69.4103
-88.3565
-107.567
-127.097
-146.892
-166.65
-185.533
-201.701
-211.829
104.2
97.5892
86.0528
71.4522
55.1636
38.0356
20.5361
2.89971
-14.7703
-32.4392
-50.1047
-67.7738
-85.4443
-103.081
-120.582
-137.711
-154.001
-168.603
-180.142
-186.755
85.7366
80.9561
72.1874
60.4919
46.8222
31.8922
16.1873
0.0210473
-16.4079
-32.9703
-49.5735
-66.1361
-82.5656
-98.7326
-114.438
-129.37
-143.041
-154.738
-163.509
-168.291
72.0535
68.3115
61.2491
51.506
39.7413
26.5238
12.3
-2.59496
-17.9122
-33.4608
-49.083
-64.6319
-79.9496
-94.8453
-109.07
-122.289
-134.055
-143.8
-150.864
-154.608
62.1122
58.9875
52.9916
44.5419
34.1135
22.1616
9.08399
-4.78875
-19.1851
-33.8777
-48.6661
-63.359
-77.7558
-91.6293
-104.708
-116.661
-127.091
-135.542
-141.54
-144.667
55.2955
52.535
47.1881
39.5567
30.0091
18.9254
6.66306
-6.459
-20.1617
-34.1988
-48.345
-62.3823
-76.0855
-89.2083
-101.472
-112.557
-122.106
-129.739
-135.088
-137.85
51.239
48.6692
43.669
36.4877
27.4408
16.8679
5.10186
-7.54862
-20.8041
-34.4109
-48.1329
-61.74
-74.9959
-87.6471
-99.4142
-109.988
-119.037
-126.22
-131.222
-133.794
49.752
47.2338
42.3314
35.2845
26.3986
16.0036
4.42512
-8.03331
-21.0951
-34.5079
-48.0359
-61.449
-74.5112
-86.9704
-98.5499
-108.946
-117.833
-124.882
-129.786
-132.307
50.7831
48.1829
43.1381
35.9206
26.8654
16.323
4.62828
-7.9147
-21.0351
-34.4898
-48.054
-61.509
-74.6298
-87.1736
-98.8693
-109.413
-118.47
-125.689
-130.736
-133.338
54.4141
51.5768
46.1177
38.3945
28.8195
17.7948
5.67971
-7.21874
-20.6408
-34.3624
-48.1815
-61.9033
-75.3258
-88.225
-100.341
-111.367
-120.943
-128.668
-134.129
-136.969
60.8822
57.5927
51.3615
42.7204
32.2232
20.3571
7.51453
-5.99923
-19.9469
-34.1375
-48.4063
-62.5971
-76.5453
-90.0598
-102.903
-114.771
-125.269
-133.912
-140.145
-143.437
70.6396
66.5503
59.0156
48.9023
36.996
23.8958
10.0206
-4.3458
-19.0103
-33.8346
-48.7092
-63.5338
-78.1987
-92.5659
-106.442
-119.544
-131.451
-141.566
-149.103
-153.194
84.4861
78.9536
69.2484
56.8773
42.963
28.2094
13.018
-2.3943
-17.9139
-33.4814
-49.0624
-64.6301
-80.1502
-95.5632
-110.756
-125.511
-139.426
-151.799
-161.506
-167.041
103.865
95.53
82.1474
66.3956
49.7696
32.9608
16.2362
-0.33545
-16.7698
-33.1147
-49.4291
-65.7743
-82.2091
-98.7815
-115.507
-132.317
-148.945
-164.698
-178.083
-186.42
131.579
117.154
97.416
76.7882
56.759
37.6282
19.3017
1.58602
-15.715
-32.7786
-49.7652
-66.829
-84.1306
-101.847
-120.175
-139.306
-159.337
-179.967
-199.707
-214.133
173.717
144.093
113.574
86.5827
62.85
41.4916
21.7562
3.09291
-14.8978
-32.5197
-50.0241
-67.6462
-85.6375
-104.301
-124.038
-145.397
-169.132
-196.125
-226.645
-256.272
245.479
171.926
126.206
93.1184
66.5668
43.7323
23.1386
3.9273
-14.4496
-32.3782
-50.1656
-68.0945
-86.4718
-105.684
-126.279
-149.114
-175.667
-208.757
-254.478
-328.034
)
;

boundaryField
{
    up
    {
        type            calculated;
        value           nonuniform List<scalar> 
20
(
245.479
171.926
126.206
93.1184
66.5668
43.7323
23.1386
3.9273
-14.4496
-32.3782
-50.1656
-68.0945
-86.4718
-105.684
-126.279
-149.114
-175.667
-208.757
-254.478
-328.034
)
;
    }
    down
    {
        type            calculated;
        value           nonuniform List<scalar> 
20
(
307.007
215.614
159.102
118.528
86.2808
58.8293
34.3099
11.6254
-9.93719
-30.8913
-51.6525
-72.6069
-94.17
-116.855
-141.376
-168.828
-201.077
-241.653
-298.166
-389.562
)
;
    }
    left
    {
        type            calculated;
        value           nonuniform List<scalar> 
20
(
364.844
234.2
170.735
132.308
106.018
86.9975
73.0205
62.9112
55.9974
51.8907
50.3905
51.4436
55.1385
61.7305
71.7152
86.0021
106.352
136.652
187.246
291.959
)
;
    }
    right
    {
        type            calculated;
        value           nonuniform List<scalar> 
20
(
-447.4
-316.756
-253.291
-214.864
-188.574
-169.553
-155.576
-145.467
-138.553
-134.447
-132.946
-134
-137.694
-144.286
-154.271
-168.558
-188.908
-219.208
-269.802
-374.515
)
;
    }
    frontAndBack
    {
        type            empty;
    }
}


// ************************************************************************* //
