/*--------------------------------*- C++ -*----------------------------------*\
| =========                 |                                                 |
| \\      /  F ield         | foam-extend: Open Source CFD                    |
|  \\    /   O peration     | Version:     4.0                                |
|   \\  /    A nd           | Web:         http://www.foam-extend.org         |
|    \\/     M anipulation  |                                                 |
\*---------------------------------------------------------------------------*/
FoamFile
{
    version     2.0;
    format      ascii;
    class       volScalarField;
    location    "1";
    object      T;
}
// * * * * * * * * * * * * * * * * * * * * * * * * * * * * * * * * * * * * * //

dimensions      [0 0 0 1 0 0 0];

internalField   nonuniform List<scalar> 
400
(
61.0048
73.4633
82.5662
89.3736
94.419
98.0017
100.302
101.433
101.464
100.439
98.3753
95.2737
91.1147
85.8567
79.4291
71.7191
62.5463
51.6115
38.381
21.7948
57.7387
67.7692
75.812
82.0859
86.8321
90.2344
92.4218
93.4819
93.4722
92.4273
90.3637
87.2814
83.1639
77.9766
71.6619
64.1322
55.2586
44.8572
32.6869
18.5287
56.1521
64.0629
70.8267
76.3258
80.5891
83.6822
85.6691
86.6011
86.5151
85.4346
83.371
80.3243
76.2831
71.2238
65.1096
57.8892
49.4986
39.872
28.9805
16.9421
55.1915
61.5035
67.1063
71.8017
75.5163
78.2362
79.9714
80.7384
80.5526
79.425
77.3614
74.3618
70.4204
65.5261
59.6637
52.8164
44.9745
36.1515
26.4211
15.9814
54.5342
59.6533
64.2931
68.2586
71.4383
73.7749
75.2419
75.8286
75.5318
74.3515
72.2879
69.3411
65.5106
60.7966
55.2024
48.7385
41.4313
33.3383
24.571
15.3242
54.0587
58.2825
62.1543
65.5012
68.2035
70.1834
71.3927
71.8022
71.3948
70.1614
68.0978
65.204
61.4842
56.9475
51.6109
45.5036
38.6739
31.1995
23.2001
14.8487
53.7093
57.2636
60.5404
63.3885
65.691
67.3626
68.3434
68.5926
68.0839
66.8014
64.7378
61.8931
58.2746
53.8981
48.7901
42.9911
36.5612
29.5856
22.1812
14.4992
53.4565
56.5222
59.3553
61.8213
63.8095
65.2327
66.0256
66.1411
65.5468
64.2226
62.159
59.356
55.8231
51.5804
46.6602
41.1096
34.9941
28.4005
21.4398
14.2465
53.2837
56.0134
58.5372
60.7322
62.4928
63.7331
64.3854
64.3994
63.7395
62.3832
60.3196
57.5487
54.0814
49.9401
45.1605
39.793
33.9049
27.5824
20.931
14.0737
53.181
55.7104
58.0479
60.0773
61.6967
62.8214
63.3835
63.3315
62.6286
61.2511
59.1875
56.4378
53.0135
48.9383
44.2488
38.9968
33.25
27.0932
20.628
13.971
53.1435
55.5992
57.8669
59.8323
61.3953
62.4722
62.9957
62.9147
62.1924
60.8052
58.7416
56.0016
52.5967
48.5505
43.8996
38.6955
33.005
26.9121
20.5168
13.9335
53.1698
55.676
57.9881
59.9898
61.5802
62.6763
63.2125
63.1391
62.421
61.0356
58.972
56.2302
52.8211
48.7672
44.1038
38.8803
33.1625
27.0334
20.5936
13.9598
53.2622
55.9467
58.4199
60.5585
62.2593
63.4404
64.0388
64.0084
63.3169
61.9443
59.8807
57.1262
53.6904
49.5936
44.8679
39.5595
33.7312
27.4651
20.8643
14.0522
53.427
56.4287
59.1863
61.5648
63.4583
64.7872
65.494
65.5386
64.8941
63.5439
61.4803
58.7033
55.2206
51.0488
46.2146
40.7584
34.7376
28.2315
21.3464
14.217
53.6766
57.1548
60.3317
63.0564
65.2219
66.756
67.6115
67.758
67.1769
65.857
63.7934
60.9861
57.44
53.1662
48.1835
42.522
36.2291
29.3769
22.0725
14.4666
54.0338
58.1823
61.9292
65.1071
67.6169
69.4034
70.4378
70.7052
70.1984
68.9138
66.8503
64.0076
60.3872
55.9926
50.8309
44.917
38.2799
30.9744
23.1
14.8238
54.5426
59.6114
64.0955
67.8262
70.7351
72.8031
74.0312
74.4267
73.9976
72.7498
70.6862
67.8069
64.1087
59.5859
54.2306
48.0352
40.9989
33.1408
24.5291
15.3325
55.3
61.6253
67.0155
71.3669
74.6943
77.0428
78.4571
78.973
78.6157
77.4015
75.3379
72.4249
68.655
64.0119
58.4703
51.9944
44.5396
36.0607
26.543
16.09
56.5649
64.5743
70.9742
75.9317
79.6324
82.2167
83.7816
84.3923
84.0909
82.9025
80.8389
77.9001
74.0743
69.3364
63.6442
56.9326
49.1044
40.0194
29.4919
17.3549
59.1827
69.1327
76.3753
81.7533
85.6871
88.41
90.0604
90.7238
90.4531
89.2789
87.2153
84.2623
80.4058
75.6151
69.8374
62.9873
54.926
45.4205
34.0503
19.9727
)
;

boundaryField
{
    up
    {
        type            fixedGradient;
        gradient        uniform 145.316;
    }
    down
    {
        type            fixedGradient;
        gradient        uniform 180.996;
    }
    left
    {
        type            fixedValue;
        value           uniform 51.8837;
    }
    right
    {
        type            fixedValue;
        value           uniform 10.6098;
    }
    frontAndBack
    {
        type            empty;
    }
}


// ************************************************************************* //
