/*--------------------------------*- C++ -*----------------------------------*\
| =========                 |                                                 |
| \\      /  F ield         | foam-extend: Open Source CFD                    |
|  \\    /   O peration     | Version:     4.0                                |
|   \\  /    A nd           | Web:         http://www.foam-extend.org         |
|    \\/     M anipulation  |                                                 |
\*---------------------------------------------------------------------------*/
FoamFile
{
    version     2.0;
    format      ascii;
    class       regIOobject;
    location    "2.4/uniform";
    object      profilingInfo;
}
// * * * * * * * * * * * * * * * * * * * * * * * * * * * * * * * * * * * * * //

profilingInfo
(

    {
        id              13;
        parentId        10;
        description     "Foam::Time::writeObject - outputTime";
        calls           1;
        totalTime       0.031427;
        childTime       0;
        onStack         1;
    }

    {
        id              10;
        parentId        1;
        description     "Foam::Time::writeObject";
        calls           49;
        totalTime       -9.48478e+13;
        childTime       0.031427;
        onStack         1;
    }

    {
        id              1;
        description     "application::main";
        calls           1;
        totalTime       0.180502;
        childTime       -9.48478e+13;
        onStack         1;
    }

    {
        id              12;
        parentId        11;
        description     "FO::probes::execute";
        calls           47;
        totalTime       4.3e-05;
        childTime       0;
        onStack         0;
    }

    {
        id              4;
        parentId        3;
        description     "FO::probes::start";
        calls           1;
        totalTime       0.006601;
        childTime       0;
        onStack         0;
    }

    {
        id              3;
        parentId        2;
        description     "functionObjectList::read";
        calls           1;
        totalTime       0.008817;
        childTime       0.006601;
        onStack         0;
    }

    {
        id              11;
        parentId        1;
        description     "functionObjects_.execute()";
        calls           47;
        totalTime       0.000201;
        childTime       4.3e-05;
        onStack         0;
    }

    {
        id              2;
        parentId        1;
        description     "functionObjects_.start()";
        calls           1;
        totalTime       0.008824;
        childTime       0.008817;
        onStack         0;
    }

    {
        id              5;
        parentId        1;
        description     "fvMatrix::solve_U";
        calls           48;
        totalTime       0.008309;
        childTime       0.00413;
        onStack         0;
    }

    {
        id              8;
        parentId        1;
        description     "fvMatrix::solve_p";
        calls           48;
        totalTime       0.026442;
        childTime       0.023969;
        onStack         0;
    }

    {
        id              6;
        parentId        5;
        description     "lduMatrix::solver_Ux";
        calls           48;
        totalTime       0.001736;
        childTime       0;
        onStack         0;
    }

    {
        id              7;
        parentId        5;
        description     "lduMatrix::solver_Uy";
        calls           48;
        totalTime       0.002394;
        childTime       0;
        onStack         0;
    }

    {
        id              9;
        parentId        8;
        description     "lduMatrix::solver_p";
        calls           48;
        totalTime       0.023969;
        childTime       0;
        onStack         0;
    }
);


// ************************************************************************* //
